 Entering Gaussian System, Link 0=g09
 Initial command:
 /mnt/data/applications/G09/g09/l1.exe "/scratch/LMn_m1_CO3_A.in.sub.3384/Gau-127586.inp" -scrdir="/scratch/LMn_m1_CO3_A.in.sub.3384/"
 Entering Link 1 = /mnt/data/applications/G09/g09/l1.exe PID=    127587.
  
 Copyright (c) 1988,1990,1992,1993,1995,1998,2003,2009,2013,
            Gaussian, Inc.  All Rights Reserved.
  
 This is part of the Gaussian(R) 09 program.  It is based on
 the Gaussian(R) 03 system (copyright 2003, Gaussian, Inc.),
 the Gaussian(R) 98 system (copyright 1998, Gaussian, Inc.),
 the Gaussian(R) 94 system (copyright 1995, Gaussian, Inc.),
 the Gaussian 92(TM) system (copyright 1992, Gaussian, Inc.),
 the Gaussian 90(TM) system (copyright 1990, Gaussian, Inc.),
 the Gaussian 88(TM) system (copyright 1988, Gaussian, Inc.),
 the Gaussian 86(TM) system (copyright 1986, Carnegie Mellon
 University), and the Gaussian 82(TM) system (copyright 1983,
 Carnegie Mellon University). Gaussian is a federally registered
 trademark of Gaussian, Inc.
  
 This software contains proprietary and confidential information,
 including trade secrets, belonging to Gaussian, Inc.
  
 This software is provided under written license and may be
 used, copied, transmitted, or stored only in accord with that
 written license.
  
 The following legend is applicable only to US Government
 contracts under FAR:
  
                    RESTRICTED RIGHTS LEGEND
  
 Use, reproduction and disclosure by the US Government is
 subject to restrictions as set forth in subparagraphs (a)
 and (c) of the Commercial Computer Software - Restricted
 Rights clause in FAR 52.227-19.
  
 Gaussian, Inc.
 340 Quinnipiac St., Bldg. 40, Wallingford CT 06492
  
  
 ---------------------------------------------------------------
 Warning -- This program may not be used in any manner that
 competes with the business of Gaussian, Inc. or will provide
 assistance to any competitor of Gaussian, Inc.  The licensee
 of this program is prohibited from giving any competitor of
 Gaussian, Inc. access to this program.  By using this program,
 the user acknowledges that Gaussian, Inc. is engaged in the
 business of creating and licensing software in the field of
 computational chemistry and represents and warrants to the
 licensee that it is not a competitor of Gaussian, Inc. and that
 it will not use this program in any manner prohibited above.
 ---------------------------------------------------------------
  

 Cite this work as:
 Gaussian 09, Revision D.01,
 M. J. Frisch, G. W. Trucks, H. B. Schlegel, G. E. Scuseria, 
 M. A. Robb, J. R. Cheeseman, G. Scalmani, V. Barone, B. Mennucci, 
 G. A. Petersson, H. Nakatsuji, M. Caricato, X. Li, H. P. Hratchian, 
 A. F. Izmaylov, J. Bloino, G. Zheng, J. L. Sonnenberg, M. Hada, 
 M. Ehara, K. Toyota, R. Fukuda, J. Hasegawa, M. Ishida, T. Nakajima, 
 Y. Honda, O. Kitao, H. Nakai, T. Vreven, J. A. Montgomery, Jr., 
 J. E. Peralta, F. Ogliaro, M. Bearpark, J. J. Heyd, E. Brothers, 
 K. N. Kudin, V. N. Staroverov, T. Keith, R. Kobayashi, J. Normand, 
 K. Raghavachari, A. Rendell, J. C. Burant, S. S. Iyengar, J. Tomasi, 
 M. Cossi, N. Rega, J. M. Millam, M. Klene, J. E. Knox, J. B. Cross, 
 V. Bakken, C. Adamo, J. Jaramillo, R. Gomperts, R. E. Stratmann, 
 O. Yazyev, A. J. Austin, R. Cammi, C. Pomelli, J. W. Ochterski, 
 R. L. Martin, K. Morokuma, V. G. Zakrzewski, G. A. Voth, 
 P. Salvador, J. J. Dannenberg, S. Dapprich, A. D. Daniels, 
 O. Farkas, J. B. Foresman, J. V. Ortiz, J. Cioslowski, 
 and D. J. Fox, Gaussian, Inc., Wallingford CT, 2013.
 
 ******************************************
 Gaussian 09:  EM64L-G09RevD.01 24-Apr-2013
                 1-Feb-2017 
 ******************************************
 %Chk=/mnt/sirius01/home_lab_users/jllg/jlloret/ICIQ_Mn/LMn_m1_CO3_A.chk
 %mem=60GB
 %nprocshared=20
 Will use up to   20 processors via shared memory.
 ----------------------------------------------------------------------
 #p 6d B3LYP/gen opt freq=NoRaman scf=(xqc, tight) scrf=(iefpcm,SMD,sol
 vent=acetonitrile) empiricaldispersion=GD3
 ----------------------------------------------------------------------
 1/14=-1,18=20,19=15,26=3,38=1/1,3;
 2/9=110,12=2,17=6,18=5,40=1/2;
 3/5=7,8=2,11=2,16=1,25=1,30=1,70=32101,71=1,72=2,74=-5,124=31/1,2,3;
 4//1;
 5/5=2,8=3,13=1,32=2,38=5,53=2/2,8;
 6/7=2,8=2,9=2,10=2,28=1/1;
 7//1,2,3,16;
 1/14=-1,18=20,19=15,26=3/3(2);
 2/9=110/2;
 99//99;
 2/9=110/2;
 3/5=7,6=1,8=2,11=2,16=1,25=1,30=1,70=32105,71=1,72=2,74=-5,82=7,124=31/1,2,3;
 4/5=5,16=3,69=1/1;
 5/5=2,8=3,13=1,32=2,38=5,53=2/2,8;
 7//1,2,3,16;
 1/14=-1,18=20,19=15,26=3/3(-5);
 2/9=110/2;
 6/7=2,8=2,9=2,10=2,19=2,28=1/1;
 99/9=1/99;
 Leave Link    1 at Wed Feb  1 02:08:40 2017, MaxMem=  8053063680 cpu:         1.4
 (Enter /mnt/data/applications/G09/g09/l101.exe)
 --
 Mn
 --
 Symbolic Z-matrix:
 Charge = -1 Multiplicity = 1
 C                     1.38298   0.58351  -0.03862 
 N                     2.58761   0.64427   0.58192 
 N                     1.19007   1.84556  -0.51502 
 C                     2.25296   2.67915  -0.20855 
 C                     3.13781   1.91557   0.4861 
 C                    -0.00019   2.23001  -1.26191 
 N                    -1.19043   1.84527  -0.51511 
 C                    -1.38284   0.58331  -0.03825 
 N                    -2.58746   0.64384   0.58234 
 C                    -3.1381    1.91494   0.48618 
 C                    -2.25361   2.67857  -0.20887 
 Mn                    0.00017  -0.89432  -0.39708 
 C                    -1.31972  -2.04028  -0.95434 
 O                    -2.14104  -2.77276  -1.31053 
 C                     1.31966  -2.04079  -0.95418 
 O                     2.14067  -2.77374  -1.31015 
 C                     0.00024  -1.59343   1.23533 
 O                     0.00032  -2.02683   2.31345 
 H                     2.2777    3.71632  -0.50544 
 H                     4.09279   2.1591    0.92574 
 H                    -0.0001    1.72367  -2.22836 
 H                    -0.00032   3.30849  -1.40405 
 H                    -4.09309   2.15828   0.9259 
 H                    -2.27868   3.71567  -0.50599 
 C                     3.28296  -0.47217   1.22181 
 H                     2.56338  -1.23464   1.50951 
 H                     4.01521  -0.89971   0.53219 
 H                     3.79309  -0.10698   2.11465 
 C                    -3.28251  -0.47263   1.22249 
 H                    -3.79247  -0.10742   2.11543 
 H                    -4.01489  -0.90031   0.5331 
 H                    -2.56276  -1.23499   1.51007 
 
 NAtoms=     32 NQM=       32 NQMF=       0 NMMI=      0 NMMIF=      0
                NMic=       0 NMicF=      0.
                    Isotopes and Nuclear Properties:
 (Nuclear quadrupole moments (NQMom) in fm**2, nuclear magnetic moments (NMagM)
  in nuclear magnetons)

  Atom         1           2           3           4           5           6           7           8           9          10
 IAtWgt=          12          14          14          12          12          12          14          12          14          12
 AtmWgt=  12.0000000  14.0030740  14.0030740  12.0000000  12.0000000  12.0000000  14.0030740  12.0000000  14.0030740  12.0000000
 NucSpn=           0           2           2           0           0           0           2           0           2           0
 AtZEff=   0.0000000   0.0000000   0.0000000   0.0000000   0.0000000   0.0000000   0.0000000   0.0000000   0.0000000   0.0000000
 NQMom=    0.0000000   2.0440000   2.0440000   0.0000000   0.0000000   0.0000000   2.0440000   0.0000000   2.0440000   0.0000000
 NMagM=    0.0000000   0.4037610   0.4037610   0.0000000   0.0000000   0.0000000   0.4037610   0.0000000   0.4037610   0.0000000
 AtZNuc=   6.0000000   7.0000000   7.0000000   6.0000000   6.0000000   6.0000000   7.0000000   6.0000000   7.0000000   6.0000000

  Atom        11          12          13          14          15          16          17          18          19          20
 IAtWgt=          12          55          12          16          12          16          12          16           1           1
 AtmWgt=  12.0000000  54.9380463  12.0000000  15.9949146  12.0000000  15.9949146  12.0000000  15.9949146   1.0078250   1.0078250
 NucSpn=           0           5           0           0           0           0           0           0           1           1
 AtZEff=   0.0000000   0.0000000   0.0000000   0.0000000   0.0000000   0.0000000   0.0000000   0.0000000   0.0000000   0.0000000
 NQMom=    0.0000000  33.0000000   0.0000000   0.0000000   0.0000000   0.0000000   0.0000000   0.0000000   0.0000000   0.0000000
 NMagM=    0.0000000   3.4532000   0.0000000   0.0000000   0.0000000   0.0000000   0.0000000   0.0000000   2.7928460   2.7928460
 AtZNuc=   6.0000000  25.0000000   6.0000000   8.0000000   6.0000000   8.0000000   6.0000000   8.0000000   1.0000000   1.0000000

  Atom        21          22          23          24          25          26          27          28          29          30
 IAtWgt=           1           1           1           1          12           1           1           1          12           1
 AtmWgt=   1.0078250   1.0078250   1.0078250   1.0078250  12.0000000   1.0078250   1.0078250   1.0078250  12.0000000   1.0078250
 NucSpn=           1           1           1           1           0           1           1           1           0           1
 AtZEff=   0.0000000   0.0000000   0.0000000   0.0000000   0.0000000   0.0000000   0.0000000   0.0000000   0.0000000   0.0000000
 NQMom=    0.0000000   0.0000000   0.0000000   0.0000000   0.0000000   0.0000000   0.0000000   0.0000000   0.0000000   0.0000000
 NMagM=    2.7928460   2.7928460   2.7928460   2.7928460   0.0000000   2.7928460   2.7928460   2.7928460   0.0000000   2.7928460
 AtZNuc=   1.0000000   1.0000000   1.0000000   1.0000000   6.0000000   1.0000000   1.0000000   1.0000000   6.0000000   1.0000000

  Atom        31          32
 IAtWgt=           1           1
 AtmWgt=   1.0078250   1.0078250
 NucSpn=           1           1
 AtZEff=   0.0000000   0.0000000
 NQMom=    0.0000000   0.0000000
 NMagM=    2.7928460   2.7928460
 AtZNuc=   1.0000000   1.0000000
 Leave Link  101 at Wed Feb  1 02:08:41 2017, MaxMem=  8053063680 cpu:         5.3
 (Enter /mnt/data/applications/G09/g09/l103.exe)

 GradGradGradGradGradGradGradGradGradGradGradGradGradGradGradGradGradGrad
 Berny optimization.
 Initialization pass.
                           ----------------------------
                           !    Initial Parameters    !
                           ! (Angstroms and Degrees)  !
 --------------------------                            --------------------------
 ! Name  Definition              Value          Derivative Info.                !
 --------------------------------------------------------------------------------
 ! R1    R(1,2)                  1.3564         estimate D2E/DX2                !
 ! R2    R(1,3)                  1.3627         estimate D2E/DX2                !
 ! R3    R(1,12)                 2.0554         estimate D2E/DX2                !
 ! R4    R(2,5)                  1.3886         estimate D2E/DX2                !
 ! R5    R(2,25)                 1.4627         estimate D2E/DX2                !
 ! R6    R(3,4)                  1.3851         estimate D2E/DX2                !
 ! R7    R(3,6)                  1.4568         estimate D2E/DX2                !
 ! R8    R(4,5)                  1.3596         estimate D2E/DX2                !
 ! R9    R(4,19)                 1.0791         estimate D2E/DX2                !
 ! R10   R(5,20)                 1.0792         estimate D2E/DX2                !
 ! R11   R(6,7)                  1.4569         estimate D2E/DX2                !
 ! R12   R(6,21)                 1.0911         estimate D2E/DX2                !
 ! R13   R(6,22)                 1.0878         estimate D2E/DX2                !
 ! R14   R(7,8)                  1.3627         estimate D2E/DX2                !
 ! R15   R(7,11)                 1.3851         estimate D2E/DX2                !
 ! R16   R(8,9)                  1.3564         estimate D2E/DX2                !
 ! R17   R(8,12)                 2.0554         estimate D2E/DX2                !
 ! R18   R(9,10)                 1.3886         estimate D2E/DX2                !
 ! R19   R(9,29)                 1.4627         estimate D2E/DX2                !
 ! R20   R(10,11)                1.3596         estimate D2E/DX2                !
 ! R21   R(10,23)                1.0792         estimate D2E/DX2                !
 ! R22   R(11,24)                1.0791         estimate D2E/DX2                !
 ! R23   R(12,13)                1.8346         estimate D2E/DX2                !
 ! R24   R(12,15)                1.8346         estimate D2E/DX2                !
 ! R25   R(12,17)                1.7758         estimate D2E/DX2                !
 ! R26   R(13,14)                1.1567         estimate D2E/DX2                !
 ! R27   R(15,16)                1.1567         estimate D2E/DX2                !
 ! R28   R(17,18)                1.162          estimate D2E/DX2                !
 ! R29   R(25,26)                1.0872         estimate D2E/DX2                !
 ! R30   R(25,27)                1.093          estimate D2E/DX2                !
 ! R31   R(25,28)                1.0912         estimate D2E/DX2                !
 ! R32   R(29,30)                1.0912         estimate D2E/DX2                !
 ! R33   R(29,31)                1.093          estimate D2E/DX2                !
 ! R34   R(29,32)                1.0872         estimate D2E/DX2                !
 ! A1    A(2,1,3)              104.1328         estimate D2E/DX2                !
 ! A2    A(2,1,12)             135.192          estimate D2E/DX2                !
 ! A3    A(3,1,12)             120.6432         estimate D2E/DX2                !
 ! A4    A(1,2,5)              111.182          estimate D2E/DX2                !
 ! A5    A(1,2,25)             126.0254         estimate D2E/DX2                !
 ! A6    A(5,2,25)             122.728          estimate D2E/DX2                !
 ! A7    A(1,3,4)              111.8014         estimate D2E/DX2                !
 ! A8    A(1,3,6)              122.6356         estimate D2E/DX2                !
 ! A9    A(4,3,6)              125.5612         estimate D2E/DX2                !
 ! A10   A(3,4,5)              105.9301         estimate D2E/DX2                !
 ! A11   A(3,4,19)             122.3542         estimate D2E/DX2                !
 ! A12   A(5,4,19)             131.7155         estimate D2E/DX2                !
 ! A13   A(2,5,4)              106.9521         estimate D2E/DX2                !
 ! A14   A(2,5,20)             121.947          estimate D2E/DX2                !
 ! A15   A(4,5,20)             131.0966         estimate D2E/DX2                !
 ! A16   A(3,6,7)              109.5724         estimate D2E/DX2                !
 ! A17   A(3,6,21)             109.3653         estimate D2E/DX2                !
 ! A18   A(3,6,22)             109.1909         estimate D2E/DX2                !
 ! A19   A(7,6,21)             109.3644         estimate D2E/DX2                !
 ! A20   A(7,6,22)             109.1904         estimate D2E/DX2                !
 ! A21   A(21,6,22)            110.1436         estimate D2E/DX2                !
 ! A22   A(6,7,8)              122.6367         estimate D2E/DX2                !
 ! A23   A(6,7,11)             125.5603         estimate D2E/DX2                !
 ! A24   A(8,7,11)             111.8014         estimate D2E/DX2                !
 ! A25   A(7,8,9)              104.1327         estimate D2E/DX2                !
 ! A26   A(7,8,12)             120.64           estimate D2E/DX2                !
 ! A27   A(9,8,12)             135.1942         estimate D2E/DX2                !
 ! A28   A(8,9,10)             111.1823         estimate D2E/DX2                !
 ! A29   A(8,9,29)             126.0281         estimate D2E/DX2                !
 ! A30   A(10,9,29)            122.7248         estimate D2E/DX2                !
 ! A31   A(9,10,11)            106.9518         estimate D2E/DX2                !
 ! A32   A(9,10,23)            121.9462         estimate D2E/DX2                !
 ! A33   A(11,10,23)           131.0978         estimate D2E/DX2                !
 ! A34   A(7,11,10)            105.9302         estimate D2E/DX2                !
 ! A35   A(7,11,24)            122.3543         estimate D2E/DX2                !
 ! A36   A(10,11,24)           131.7152         estimate D2E/DX2                !
 ! A37   A(1,12,8)              84.5689         estimate D2E/DX2                !
 ! A38   A(1,12,15)             91.0542         estimate D2E/DX2                !
 ! A39   A(1,12,17)             97.049          estimate D2E/DX2                !
 ! A40   A(8,12,13)             91.0309         estimate D2E/DX2                !
 ! A41   A(8,12,17)             97.04           estimate D2E/DX2                !
 ! A42   A(13,12,15)            91.9975         estimate D2E/DX2                !
 ! A43   A(13,12,17)            91.9104         estimate D2E/DX2                !
 ! A44   A(15,12,17)            91.8963         estimate D2E/DX2                !
 ! A45   A(2,25,26)            109.6597         estimate D2E/DX2                !
 ! A46   A(2,25,27)            109.9413         estimate D2E/DX2                !
 ! A47   A(2,25,28)            108.95           estimate D2E/DX2                !
 ! A48   A(26,25,27)           109.6379         estimate D2E/DX2                !
 ! A49   A(26,25,28)           109.1237         estimate D2E/DX2                !
 ! A50   A(27,25,28)           109.5097         estimate D2E/DX2                !
 ! A51   A(9,29,30)            108.9497         estimate D2E/DX2                !
 ! A52   A(9,29,31)            109.9407         estimate D2E/DX2                !
 ! A53   A(9,29,32)            109.6599         estimate D2E/DX2                !
 ! A54   A(30,29,31)           109.5087         estimate D2E/DX2                !
 ! A55   A(30,29,32)           109.1247         estimate D2E/DX2                !
 ! A56   A(31,29,32)           109.6386         estimate D2E/DX2                !
 ! A57   L(1,12,13,8,-1)       175.5999         estimate D2E/DX2                !
 ! A58   L(8,12,15,1,-1)       175.6231         estimate D2E/DX2                !
 ! A59   L(12,13,14,9,-1)      180.7664         estimate D2E/DX2                !
 ! A60   L(12,15,16,2,-1)      180.7709         estimate D2E/DX2                !
 ! A61   L(12,17,18,20,-1)     179.1858         estimate D2E/DX2                !
 ! A62   L(1,12,13,8,-2)       171.4898         estimate D2E/DX2                !
 ! A63   L(8,12,15,1,-2)       188.4892         estimate D2E/DX2                !
 ! A64   L(12,13,14,9,-2)      180.0552         estimate D2E/DX2                !
 ! A65   L(12,15,16,2,-2)      179.935          estimate D2E/DX2                !
 ! A66   L(12,17,18,20,-2)     178.9556         estimate D2E/DX2                !
 ! D1    D(3,1,2,5)             -0.4008         estimate D2E/DX2                !
 ! D2    D(3,1,2,25)          -177.5284         estimate D2E/DX2                !
 ! D3    D(12,1,2,5)           177.45           estimate D2E/DX2                !
 ! D4    D(12,1,2,25)            0.3224         estimate D2E/DX2                !
 ! D5    D(2,1,3,4)              0.3742         estimate D2E/DX2                !
 ! D6    D(2,1,3,6)            179.9209         estimate D2E/DX2                !
 ! D7    D(12,1,3,4)          -177.8655         estimate D2E/DX2                !
 ! D8    D(12,1,3,6)             1.6812         estimate D2E/DX2                !
 ! D9    D(2,1,12,8)           141.9723         estimate D2E/DX2                !
 ! D10   D(2,1,12,15)          -46.5169         estimate D2E/DX2                !
 ! D11   D(2,1,12,17)           45.5246         estimate D2E/DX2                !
 ! D12   D(3,1,12,8)           -40.4503         estimate D2E/DX2                !
 ! D13   D(3,1,12,15)          131.0605         estimate D2E/DX2                !
 ! D14   D(3,1,12,17)         -136.898          estimate D2E/DX2                !
 ! D15   D(1,2,5,4)              0.2877         estimate D2E/DX2                !
 ! D16   D(1,2,5,20)           179.6112         estimate D2E/DX2                !
 ! D17   D(25,2,5,4)           177.5263         estimate D2E/DX2                !
 ! D18   D(25,2,5,20)           -3.1501         estimate D2E/DX2                !
 ! D19   D(1,2,25,26)          -23.9501         estimate D2E/DX2                !
 ! D20   D(1,2,25,27)           96.6643         estimate D2E/DX2                !
 ! D21   D(1,2,25,28)         -143.3227         estimate D2E/DX2                !
 ! D22   D(5,2,25,26)          159.234          estimate D2E/DX2                !
 ! D23   D(5,2,25,27)          -80.1517         estimate D2E/DX2                !
 ! D24   D(5,2,25,28)           39.8613         estimate D2E/DX2                !
 ! D25   D(1,3,4,5)             -0.2093         estimate D2E/DX2                !
 ! D26   D(1,3,4,19)           179.9449         estimate D2E/DX2                !
 ! D27   D(6,3,4,5)           -179.74           estimate D2E/DX2                !
 ! D28   D(6,3,4,19)             0.4142         estimate D2E/DX2                !
 ! D29   D(1,3,6,7)             51.9722         estimate D2E/DX2                !
 ! D30   D(1,3,6,21)           -67.8939         estimate D2E/DX2                !
 ! D31   D(1,3,6,22)           171.5196         estimate D2E/DX2                !
 ! D32   D(4,3,6,7)           -128.5452         estimate D2E/DX2                !
 ! D33   D(4,3,6,21)           111.5887         estimate D2E/DX2                !
 ! D34   D(4,3,6,22)            -8.9978         estimate D2E/DX2                !
 ! D35   D(3,4,5,2)             -0.0457         estimate D2E/DX2                !
 ! D36   D(3,4,5,20)          -179.284          estimate D2E/DX2                !
 ! D37   D(19,4,5,2)           179.7797         estimate D2E/DX2                !
 ! D38   D(19,4,5,20)            0.5414         estimate D2E/DX2                !
 ! D39   D(3,6,7,8)            -51.945          estimate D2E/DX2                !
 ! D40   D(3,6,7,11)           128.5531         estimate D2E/DX2                !
 ! D41   D(21,6,7,8)            67.9217         estimate D2E/DX2                !
 ! D42   D(21,6,7,11)         -111.5801         estimate D2E/DX2                !
 ! D43   D(22,6,7,8)          -171.4926         estimate D2E/DX2                !
 ! D44   D(22,6,7,11)            9.0055         estimate D2E/DX2                !
 ! D45   D(6,7,8,9)           -179.9372         estimate D2E/DX2                !
 ! D46   D(6,7,8,12)            -1.7268         estimate D2E/DX2                !
 ! D47   D(11,7,8,9)            -0.3737         estimate D2E/DX2                !
 ! D48   D(11,7,8,12)          177.8367         estimate D2E/DX2                !
 ! D49   D(6,7,11,10)          179.7615         estimate D2E/DX2                !
 ! D50   D(6,7,11,24)           -0.4069         estimate D2E/DX2                !
 ! D51   D(8,7,11,10)            0.2133         estimate D2E/DX2                !
 ! D52   D(8,7,11,24)         -179.9551         estimate D2E/DX2                !
 ! D53   D(7,8,9,10)             0.396          estimate D2E/DX2                !
 ! D54   D(7,8,9,29)           177.5181         estimate D2E/DX2                !
 ! D55   D(12,8,9,10)         -177.4189         estimate D2E/DX2                !
 ! D56   D(12,8,9,29)           -0.2968         estimate D2E/DX2                !
 ! D57   D(7,8,12,1)            40.4722         estimate D2E/DX2                !
 ! D58   D(7,8,12,13)         -131.0176         estimate D2E/DX2                !
 ! D59   D(7,8,12,17)          136.9298         estimate D2E/DX2                !
 ! D60   D(9,8,12,1)          -141.9907         estimate D2E/DX2                !
 ! D61   D(9,8,12,13)           46.5194         estimate D2E/DX2                !
 ! D62   D(9,8,12,17)          -45.5332         estimate D2E/DX2                !
 ! D63   D(8,9,10,11)           -0.2803         estimate D2E/DX2                !
 ! D64   D(8,9,10,23)         -179.6047         estimate D2E/DX2                !
 ! D65   D(29,9,10,11)        -177.5139         estimate D2E/DX2                !
 ! D66   D(29,9,10,23)           3.1617         estimate D2E/DX2                !
 ! D67   D(8,9,29,30)          143.3073         estimate D2E/DX2                !
 ! D68   D(8,9,29,31)          -96.6815         estimate D2E/DX2                !
 ! D69   D(8,9,29,32)           23.9335         estimate D2E/DX2                !
 ! D70   D(10,9,29,30)         -39.8827         estimate D2E/DX2                !
 ! D71   D(10,9,29,31)          80.1286         estimate D2E/DX2                !
 ! D72   D(10,9,29,32)        -159.2565         estimate D2E/DX2                !
 ! D73   D(9,10,11,7)            0.0391         estimate D2E/DX2                !
 ! D74   D(9,10,11,24)        -179.7704         estimate D2E/DX2                !
 ! D75   D(23,10,11,7)         179.2784         estimate D2E/DX2                !
 ! D76   D(23,10,11,24)         -0.5311         estimate D2E/DX2                !
 --------------------------------------------------------------------------------
 Trust Radius=3.00D-01 FncErr=1.00D-07 GrdErr=1.00D-06
 Number of steps in this run=    186 maximum allowed number of steps=    192.
 GradGradGradGradGradGradGradGradGradGradGradGradGradGradGradGradGradGrad

 Leave Link  103 at Wed Feb  1 02:08:41 2017, MaxMem=  8053063680 cpu:         0.1
 (Enter /mnt/data/applications/G09/g09/l202.exe)
                          Input orientation:                          
 ---------------------------------------------------------------------
 Center     Atomic      Atomic             Coordinates (Angstroms)
 Number     Number       Type             X           Y           Z
 ---------------------------------------------------------------------
      1          6           0        1.382976    0.583509   -0.038624
      2          7           0        2.587613    0.644269    0.581924
      3          7           0        1.190070    1.845562   -0.515021
      4          6           0        2.252956    2.679152   -0.208548
      5          6           0        3.137811    1.915571    0.486098
      6          6           0       -0.000189    2.230011   -1.261914
      7          7           0       -1.190430    1.845265   -0.515108
      8          6           0       -1.382840    0.583306   -0.038249
      9          7           0       -2.587459    0.643839    0.582337
     10          6           0       -3.138096    1.914936    0.486182
     11          6           0       -2.253608    2.678571   -0.208865
     12         25           0        0.000167   -0.894318   -0.397079
     13          6           0       -1.319722   -2.040282   -0.954336
     14          8           0       -2.141044   -2.772756   -1.310531
     15          6           0        1.319660   -2.040791   -0.954176
     16          8           0        2.140672   -2.773742   -1.310147
     17          6           0        0.000238   -1.593427    1.235328
     18          8           0        0.000319   -2.026827    2.313450
     19          1           0        2.277698    3.716323   -0.505441
     20          1           0        4.092787    2.159099    0.925742
     21          1           0       -0.000098    1.723665   -2.228358
     22          1           0       -0.000321    3.308488   -1.404045
     23          1           0       -4.093087    2.158276    0.925900
     24          1           0       -2.278682    3.715669   -0.505986
     25          6           0        3.282962   -0.472168    1.221805
     26          1           0        2.563376   -1.234641    1.509507
     27          1           0        4.015213   -0.899707    0.532194
     28          1           0        3.793092   -0.106977    2.114651
     29          6           0       -3.282509   -0.472634    1.222489
     30          1           0       -3.792471   -0.107422    2.115425
     31          1           0       -4.014888   -0.900305    0.533096
     32          1           0       -2.562763   -1.234993    1.510069
 ---------------------------------------------------------------------
                    Distance matrix (angstroms):
                    1          2          3          4          5
     1  C    0.000000
     2  N    1.356437   0.000000
     3  N    1.362698   2.144649   0.000000
     4  C    2.275403   2.208527   1.385108   0.000000
     5  C    2.264767   1.388564   2.191081   1.359617   0.000000
     6  C    2.473975   3.551202   1.456834   2.527443   3.605754
     7  N    2.905423   4.113329   2.380500   3.556157   4.443088
     8  C    2.765816   4.019058   2.905248   4.200070   4.741957
     9  N    4.019152   5.175072   4.113157   5.310143   5.865601
    10  C    4.742174   5.865791   4.442999   5.489091   6.275907
    11  C    4.200358   5.310476   3.556199   4.506564   5.489312
    12  Mn   2.055389   3.165529   2.989435   4.228509   4.303520
    13  C    3.876517   4.983390   4.646702   5.966011   6.131331
    14  O    5.030008   6.133322   5.749610   7.088364   7.285231
    15  C    2.780143   3.343180   3.913233   4.868764   4.586160
    16  O    3.669061   3.932237   4.782660   5.564187   5.119613
    17  C    2.876451   3.482633   4.038077   5.041274   4.766422
    18  O    3.775956   4.102076   4.940764   5.794919   5.359624
    19  H    3.291348   3.273519   2.163972   1.079111   2.228374
    20  H    3.279567   2.162977   3.255744   2.223072   1.079153
    21  H    2.829803   3.969764   2.089709   3.173144   4.153501
    22  H    3.347147   4.211833   2.085077   2.627267   3.919277
    23  H    5.779054   6.858738   5.485052   6.467654   7.248325
    24  H    4.841135   5.856439   3.940764   4.658173   5.793357
    25  C    2.512585   1.462665   3.573323   3.610767   2.502725
    26  H    2.663780   2.095543   3.933489   4.285540   3.361722
    27  H    3.074806   2.103420   4.076100   4.057398   2.949195
    28  H    3.304848   2.089690   4.183695   3.941039   2.678111
    29  C    4.946978   6.009670   5.328878   6.528629   6.889579
    30  H    5.648236   6.604706   5.963146   7.050747   7.401082
    31  H    5.627211   6.780937   5.977451   7.255923   7.687163
    32  H    4.612402   5.560526   5.260662   6.439357   6.593263
                    6          7          8          9         10
     6  C    0.000000
     7  N    1.456854   0.000000
     8  C    2.474008   1.362702   0.000000
     9  N    3.551221   2.144644   1.356428   0.000000
    10  C    3.605769   2.191082   2.264772   1.388573   0.000000
    11  C    2.527452   1.385111   2.275408   2.208527   1.359613
    12  Mn   3.241816   2.989443   2.055442   3.165595   4.303574
    13  C    4.480086   3.912431   2.779643   3.342608   4.585338
    14  O    5.441810   4.781473   3.668341   3.931330   5.118276
    15  C    4.480676   4.647017   3.876637   4.983341   6.131394
    16  O    5.442716   5.750092   5.030172   6.133236   7.285320
    17  C    4.566716   4.038108   2.876294   3.482518   4.766442
    18  O    5.559127   4.940822   3.775766   4.101927   5.359669
    19  H    2.823144   3.940668   4.840827   5.856037   5.793025
    20  H    4.641478   5.485155   5.778831   6.858544   7.248344
    21  H    1.091055   2.089713   2.830013   3.969946   4.153594
    22  H    1.087802   2.085088   3.347144   4.211811   3.919257
    23  H    4.641497   3.255748   3.279566   2.162977   1.079154
    24  H    2.823143   2.163975   3.291354   3.273519   2.228369
    25  C    4.924400   5.329034   4.946865   6.009678   6.889804
    26  H    5.124105   5.260793   4.612277   5.560524   6.593467
    27  H    5.397908   5.977494   5.627052   6.780879   7.687273
    28  H    5.590321   5.963420   5.648163   6.604782   7.401447
    29  C    4.924446   3.573331   2.512611   1.462669   2.502697
    30  H    5.590296   4.183695   3.304805   2.089690   2.678166
    31  H    5.398032   4.076083   3.074933   2.103416   2.948991
    32  H    5.124151   3.933526   2.663779   2.095544   3.361756
                   11         12         13         14         15
    11  C    0.000000
    12  Mn   4.228530   0.000000
    13  C    4.867797   1.834632   0.000000
    14  O    5.562671   2.991272   1.156703   0.000000
    15  C    5.966248   1.834617   2.639382   3.555170   0.000000
    16  O    7.088740   2.991269   3.555122   4.281716   1.156717
    17  C    5.041377   1.775811   2.595497   3.529491   2.595176
    18  O    5.795087   2.937609   3.524360   4.274937   3.523952
    19  H    4.658070   5.143627   6.803046   7.891869   5.853508
    20  H    6.467914   5.274727   7.103854   8.257406   5.372467
    21  H    3.173091   3.194905   4.187104   5.063976   4.187652
    22  H    2.627271   4.321754   5.527422   6.447710   5.528066
    23  H    2.223079   5.274783   5.371660   5.755621   7.103850
    24  H    1.079112   5.143636   5.852486   6.539564   6.803365
    25  C    6.528980   3.684527   5.327220   6.412899   3.324158
    26  H    6.439671   3.212620   4.668836   5.696488   2.875142
    27  H    7.256126   4.121186   5.654398   6.693538   3.282891
    28  H    7.051283   4.616814   6.268749   7.352021   4.390353
    29  C    3.610748   3.684668   3.323946   3.606895   5.327002
    30  H    3.941089   4.616924   4.390201   4.644178   6.268513
    31  H    4.057212   4.121399   3.282670   3.227433   5.654210
    32  H    4.285591   3.212769   2.875228   3.240115   4.668514
                   16         17         18         19         20
    16  O    0.000000
    17  C    3.529029   0.000000
    18  O    4.274278   1.161974   0.000000
    19  H    6.541198   6.034115   6.790904   0.000000
    20  H    5.756985   5.561138   6.016312   2.787074   0.000000
    21  H    5.064847   4.795854   5.890179   3.482454   5.185524
    22  H    6.448736   5.567321   6.502719   2.482577   4.847941
    23  H    8.257388   5.561145   6.016341   6.712909   8.185874
    24  H    7.892390   6.034248   6.791121   4.556380   6.713298
    25  C    3.607333   3.468960   3.792677   4.640840   2.768941
    26  H    3.240055   2.602610   2.800561   5.352912   3.767937
    27  H    3.228023   4.134691   4.534605   5.040176   3.084995
    28  H    4.644499   4.167551   4.255640   4.876364   2.576514
    29  C    6.412506   3.468828   3.792449   7.172796   7.836394
    30  H    7.351598   4.167424   4.255418   7.637861   8.290341
    31  H    6.693148   4.134584   4.534380   7.873275   8.674590
    32  H    5.695934   2.602486   2.800323   7.211648   7.493840
                   21         22         23         24         25
    21  H    0.000000
    22  H    1.786381   0.000000
    23  H    5.185633   4.847924   0.000000
    24  H    3.482325   2.482586   2.787084   0.000000
    25  C    5.244406   5.654060   7.836638   7.173223   0.000000
    26  H    5.412449   5.975061   7.494063   7.212025   1.087171
    27  H    5.534027   6.130452   8.674722   7.873540   1.092952
    28  H    6.049898   6.199726   8.290737   7.638508   1.091225
    29  C    5.244645   5.654054   2.768879   4.640816   6.565471
    30  H    6.050076   6.199638   2.576573   4.876410   7.140963
    31  H    5.534382   6.130514   3.084692   5.039972   7.342768
    32  H    5.412647   5.975064   3.767946   5.352965   5.902330
                   26         27         28         29         30
    26  H    0.000000
    27  H    1.781896   0.000000
    28  H    1.774831   1.783796   0.000000
    29  C    5.902322   7.342727   7.140993   0.000000
    30  H    6.483406   8.005889   7.585563   1.091227   0.000000
    31  H    6.658732   8.030101   8.005950   1.092952   1.783787
    32  H    5.126139   6.658710   6.483428   1.087165   1.774839
                   31         32
    31  H    0.000000
    32  H    1.781898   0.000000
 Stoichiometry    C12H12MnN4O3(1-)
 Framework group  C1[X(C12H12MnN4O3)]
 Deg. of freedom    90
 Full point group                 C1      NOp   1
 Largest Abelian subgroup         C1      NOp   1
 Largest concise Abelian subgroup C1      NOp   1
                         Standard orientation:                         
 ---------------------------------------------------------------------
 Center     Atomic      Atomic             Coordinates (Angstroms)
 Number     Number       Type             X           Y           Z
 ---------------------------------------------------------------------
      1          6           0        1.382976    0.583509   -0.038624
      2          7           0        2.587613    0.644269    0.581924
      3          7           0        1.190070    1.845562   -0.515021
      4          6           0        2.252956    2.679152   -0.208548
      5          6           0        3.137811    1.915571    0.486098
      6          6           0       -0.000189    2.230011   -1.261914
      7          7           0       -1.190430    1.845265   -0.515108
      8          6           0       -1.382840    0.583306   -0.038249
      9          7           0       -2.587459    0.643839    0.582337
     10          6           0       -3.138096    1.914936    0.486182
     11          6           0       -2.253608    2.678571   -0.208865
     12         25           0        0.000167   -0.894318   -0.397079
     13          6           0       -1.319722   -2.040282   -0.954336
     14          8           0       -2.141044   -2.772756   -1.310531
     15          6           0        1.319660   -2.040791   -0.954176
     16          8           0        2.140672   -2.773742   -1.310147
     17          6           0        0.000238   -1.593427    1.235328
     18          8           0        0.000319   -2.026827    2.313450
     19          1           0        2.277698    3.716323   -0.505441
     20          1           0        4.092787    2.159099    0.925742
     21          1           0       -0.000098    1.723665   -2.228358
     22          1           0       -0.000321    3.308488   -1.404045
     23          1           0       -4.093087    2.158276    0.925900
     24          1           0       -2.278682    3.715669   -0.505986
     25          6           0        3.282962   -0.472168    1.221805
     26          1           0        2.563376   -1.234641    1.509507
     27          1           0        4.015213   -0.899707    0.532194
     28          1           0        3.793092   -0.106977    2.114651
     29          6           0       -3.282509   -0.472634    1.222489
     30          1           0       -3.792471   -0.107422    2.115425
     31          1           0       -4.014888   -0.900305    0.533096
     32          1           0       -2.562763   -1.234993    1.510069
 ---------------------------------------------------------------------
 Rotational constants (GHZ):      0.3970353      0.3395926      0.2319073
 Leave Link  202 at Wed Feb  1 02:08:41 2017, MaxMem=  8053063680 cpu:         0.1
 (Enter /mnt/data/applications/G09/g09/l301.exe)
 General basis read from cards:  (6D, 7F)
 Centers:       1      4      5      6      8     10     11     13     15     17
 Centers:      25     29      2      3      7      9     14     16     18     19
 Centers:      20     21     22     23     24     26     27     28     30     31
 Centers:      32     12
 6-31+g**
 ****
 Ernie: Thresh=  0.10000D-02 Tol=  0.10000D-05 Strict=F.
 There are   473 symmetry adapted cartesian basis functions of A   symmetry.
 There are   470 symmetry adapted basis functions of A   symmetry.
   470 basis functions,   809 primitive gaussians,   473 cartesian basis functions
    81 alpha electrons       81 beta electrons
       nuclear repulsion energy      1993.8997247351 Hartrees.
 IExCor=  402 DFT=T Ex+Corr=B3LYP ExCW=0 ScaHFX=  0.200000
 ScaDFX=  0.800000  0.720000  1.000000  0.810000 ScalE2=  1.000000  1.000000
 IRadAn=      0 IRanWt=     -1 IRanGd=            0 ICorTp=0 IEmpDi=131
 NAtoms=   32 NActive=   32 NUniq=   32 SFac= 1.00D+00 NAtFMM=   60 NAOKFM=F Big=F
 Integral buffers will be    131072 words long.
 Raffenetti 2 integral format.
 Two-electron integral symmetry is turned on.
 R6Disp:  Grimme-D3 Dispersion energy=       -0.0404937209 Hartrees.
 Nuclear repulsion after empirical dispersion term =     1993.8592310142 Hartrees.
 ------------------------------------------------------------------------------
 Polarizable Continuum Model (PCM)
 =================================
 Model                : C-PCM.
 Atomic radii         : SMD-Coulomb.
 Polarization charges : Total charges.
 Charge compensation  : None.
 Solution method      : On-the-fly selection.
 Cavity type          : VdW (van der Waals Surface) (Alpha=1.000).
 Cavity algorithm     : GePol (No added spheres)
                        Default sphere list used, NSphG=   32.
                        Lebedev-Laikov grids with approx.  5.0 points / Ang**2.
                        Smoothing algorithm: Karplus/York (Gamma=1.0000).
                        Polarization charges: spherical gaussians, with
                                              point-specific exponents (IZeta= 3).
                        Self-potential: point-specific (ISelfS= 7).
                        Self-field    : sphere-specific E.n sum rule (ISelfD= 2).
 1st derivatives      : Analytical E(r).r(x)/FMM algorithm (CHGder, D1EAlg=3).
                        Cavity 1st derivative terms included.
 Solvent              : Acetonitrile, Eps=  35.688000 Eps(inf)=   1.806874
 ------------------------------------------------------------------------------
 GePol: Number of generator spheres                  =      32
 GePol: Total number of spheres                      =      32
 GePol: Number of exposed spheres                    =      32 (100.00%)
 GePol: Number of points                             =    2642
 GePol: Average weight of points                     =       0.12
 GePol: Minimum weight of points                     =   0.14D-10
 GePol: Maximum weight of points                     =    0.21559
 GePol: Number of points with low weight             =     176
 GePol: Fraction of low-weight points (<1% of avg)   =       6.66%
 GePol: Cavity surface area                          =    327.085 Ang**2
 GePol: Cavity volume                                =    323.396 Ang**3
 ------------------------------------------------------------------------------
 Atomic radii for non-electrostatic terms: SMD-CDS.
 ------------------------------------------------------------------------------
 PCM non-electrostatic energy =        -0.0023375782 Hartrees.
 Nuclear repulsion after PCM non-electrostatic terms =     1993.8568934360 Hartrees.
 Leave Link  301 at Wed Feb  1 02:08:41 2017, MaxMem=  8053063680 cpu:         0.9
 (Enter /mnt/data/applications/G09/g09/l302.exe)
 NPDir=0 NMtPBC=     1 NCelOv=     1 NCel=       1 NClECP=     1 NCelD=      1
         NCelK=      1 NCelE2=     1 NClLst=     1 CellRange=     0.0.
 One-electron integrals computed using PRISM.
 NBasis=   470 RedAO= T EigKep=  1.43D-06  NBF=   470
 NBsUse=   469 1.00D-06 EigRej=  7.30D-07 NBFU=   469
 Precomputing XC quadrature grid using
 IXCGrd= 4 IRadAn=           0 IRanWt=          -1 IRanGd=           0 AccXCQ= 0.00D+00.
 Generated NRdTot=       0 NPtTot=           0 NUsed=           0 NTot=          32
 NSgBfM=   468   468   468   468   468 MxSgAt=    32 MxSgA2=    32.
 Leave Link  302 at Wed Feb  1 02:08:41 2017, MaxMem=  8053063680 cpu:         9.3
 (Enter /mnt/data/applications/G09/g09/l303.exe)
 DipDrv:  MaxL=1.
 Leave Link  303 at Wed Feb  1 02:08:41 2017, MaxMem=  8053063680 cpu:         1.0
 (Enter /mnt/data/applications/G09/g09/l401.exe)
 ExpMin= 1.19D-02 ExpMax= 5.63D+04 ExpMxC= 8.46D+03 IAcc=3 IRadAn=         5 AccDes= 0.00D+00
 Harris functional with IExCor=  402 and IRadAn=       5 diagonalized for initial guess.
 HarFok:  IExCor=  402 AccDes= 0.00D+00 IRadAn=         5 IDoV= 1 UseB2=F ITyADJ=14
 ICtDFT=  3500011 ScaDFX=  1.000000  1.000000  1.000000  1.000000
 FoFCou: FMM=F IPFlag=           0 FMFlag=      100000 FMFlg1=           0
         NFxFlg=           0 DoJE=T BraDBF=F KetDBF=T FulRan=T
         wScrn=  0.000000 ICntrl=     500 IOpCl=  0 I1Cent=   200000004 NGrid=           0
         NMat0=    1 NMatS0=      1 NMatT0=    0 NMatD0=    1 NMtDS0=    0 NMtDT0=    0
 Petite list used in FoFCou.
 Harris En= -2060.31161807462    
 JPrj=0 DoOrth=F DoCkMO=F.
 Leave Link  401 at Wed Feb  1 02:08:43 2017, MaxMem=  8053063680 cpu:        40.2
 (Enter /mnt/data/applications/G09/g09/l502.exe)
 Closed shell SCF:
 Using DIIS extrapolation, IDIIS=  1040.
 Integral symmetry usage will be decided dynamically.
 Keep R1 ints in memory in canonical form, NReq=6179578034.
 IVT=      690104 IEndB=      690104 NGot=  8053063680 MDV=  1926733622
 LenX=  1926733622 LenY=  1926509420
 Requested convergence on RMS density matrix=1.00D-08 within  64 cycles.
 Requested convergence on MAX density matrix=1.00D-06.
 Requested convergence on             energy=1.00D-06.
 No special actions if energy rises.
 FoFCou: FMM=F IPFlag=           0 FMFlag=           0 FMFlg1=           0
         NFxFlg=           0 DoJE=F BraDBF=F KetDBF=F FulRan=T
         wScrn=  0.000000 ICntrl=     600 IOpCl=  0 I1Cent=           0 NGrid=           0
         NMat0=    1 NMatS0= 110685 NMatT0=    0 NMatD0=    1 NMtDS0=    0 NMtDT0=    0
 Symmetry not used in FoFCou.

 Cycle   1  Pass 1  IDiag  1:
 Inv3:  Mode=1 IEnd=    20940492.
 Iteration    1 A*A^-1 deviation from unit magnitude is 9.44D-15 for   2463.
 Iteration    1 A*A^-1 deviation from orthogonality  is 5.61D-15 for    788    584.
 Iteration    1 A^-1*A deviation from unit magnitude is 9.21D-15 for   2463.
 Iteration    1 A^-1*A deviation from orthogonality  is 6.28D-15 for   1370    889.
 E= -2059.90030752620    
 DIIS: error= 1.86D-02 at cycle   1 NSaved=   1.
 NSaved= 1 IEnMin= 1 EnMin= -2059.90030752620     IErMin= 1 ErrMin= 1.86D-02
 ErrMax= 1.86D-02  0.00D+00 EMaxC= 1.00D-01 BMatC= 4.00D-01 BMatP= 4.00D-01
 IDIUse=3 WtCom= 8.14D-01 WtEn= 1.86D-01
 Coeff-Com:  0.100D+01
 Coeff-En:   0.100D+01
 Coeff:      0.100D+01
 Gap=     0.161 Goal=   None    Shift=    0.000
 GapD=    0.161 DampG=1.000 DampE=0.250 DampFc=0.2500 IDamp=-1.
 Damping current iteration by 2.50D-01
 RMSDP=9.10D-02 MaxDP=1.12D+01              OVMax= 4.97D-01

 Cycle   2  Pass 1  IDiag  1:
 E= -2060.02408812548     Delta-E=       -0.123780599278 Rises=F Damp=T
 DIIS: error= 1.58D-02 at cycle   2 NSaved=   2.
 NSaved= 2 IEnMin= 2 EnMin= -2060.02408812548     IErMin= 2 ErrMin= 1.58D-02
 ErrMax= 1.58D-02  0.00D+00 EMaxC= 1.00D-01 BMatC= 1.73D-01 BMatP= 4.00D-01
 IDIUse=3 WtCom= 8.42D-01 WtEn= 1.58D-01
 Coeff-Com: -0.494D+00 0.149D+01
 Coeff-En:   0.000D+00 0.100D+01
 Coeff:     -0.416D+00 0.142D+01
 Gap=     0.133 Goal=   None    Shift=    0.000
 RMSDP=5.63D-02 MaxDP=1.15D+01 DE=-1.24D-01 OVMax= 5.42D-01

 Cycle   3  Pass 1  IDiag  1:
 E= -2058.31436084986     Delta-E=        1.709727275615 Rises=F Damp=F
 DIIS: error= 9.33D-02 at cycle   3 NSaved=   3.
 NSaved= 3 IEnMin= 2 EnMin= -2060.02408812548     IErMin= 2 ErrMin= 1.58D-02
 ErrMax= 9.33D-02  0.00D+00 EMaxC= 1.00D-01 BMatC= 4.00D+00 BMatP= 1.73D-01
 IDIUse=2 WtCom= 0.00D+00 WtEn= 1.00D+00
 Coeff-En:   0.000D+00 0.902D+00 0.981D-01
 Coeff:      0.000D+00 0.902D+00 0.981D-01
 Gap=     0.043 Goal=   None    Shift=    0.000
 RMSDP=3.20D-02 MaxDP=3.07D+00 DE= 1.71D+00 OVMax= 4.35D-01

 Cycle   4  Pass 1  IDiag  1:
 E= -2060.09042867923     Delta-E=       -1.776067829372 Rises=F Damp=F
 DIIS: error= 2.38D-02 at cycle   4 NSaved=   4.
 NSaved= 4 IEnMin= 4 EnMin= -2060.09042867923     IErMin= 2 ErrMin= 1.58D-02
 ErrMax= 2.38D-02  0.00D+00 EMaxC= 1.00D-01 BMatC= 3.24D-01 BMatP= 1.73D-01
 IDIUse=2 WtCom= 0.00D+00 WtEn= 1.00D+00
 EnCoef did     2 forward-backward iterations
 Coeff-En:   0.292D-01 0.000D+00 0.189D+00 0.782D+00
 Coeff:      0.292D-01 0.000D+00 0.189D+00 0.782D+00
 Gap=     0.127 Goal=   None    Shift=    0.000
 RMSDP=3.58D-02 MaxDP=3.60D+00 DE=-1.78D+00 OVMax= 2.80D-01

 Cycle   5  Pass 1  IDiag  1:
 E= -2060.09356907836     Delta-E=       -0.003140399123 Rises=F Damp=F
 DIIS: error= 2.73D-02 at cycle   5 NSaved=   5.
 NSaved= 5 IEnMin= 5 EnMin= -2060.09356907836     IErMin= 2 ErrMin= 1.58D-02
 ErrMax= 2.73D-02  0.00D+00 EMaxC= 1.00D-01 BMatC= 3.56D-01 BMatP= 1.73D-01
 IDIUse=2 WtCom= 0.00D+00 WtEn= 1.00D+00
 Coeff-En:   0.000D+00 0.000D+00 0.000D+00 0.498D+00 0.502D+00
 Coeff:      0.000D+00 0.000D+00 0.000D+00 0.498D+00 0.502D+00
 Gap=     0.098 Goal=   None    Shift=    0.000
 RMSDP=2.01D-02 MaxDP=2.60D+00 DE=-3.14D-03 OVMax= 1.50D-01

 Cycle   6  Pass 1  IDiag  1:
 E= -2060.29702808442     Delta-E=       -0.203459006066 Rises=F Damp=F
 DIIS: error= 6.17D-03 at cycle   6 NSaved=   6.
 NSaved= 6 IEnMin= 6 EnMin= -2060.29702808442     IErMin= 6 ErrMin= 6.17D-03
 ErrMax= 6.17D-03  0.00D+00 EMaxC= 1.00D-01 BMatC= 1.62D-02 BMatP= 1.73D-01
 IDIUse=3 WtCom= 9.38D-01 WtEn= 6.17D-02
 Coeff-Com: -0.389D+00 0.507D+00-0.358D-01 0.368D-01 0.415D+00 0.466D+00
 Coeff-En:   0.000D+00 0.000D+00 0.000D+00 0.000D+00 0.878D-01 0.912D+00
 Coeff:     -0.365D+00 0.476D+00-0.336D-01 0.345D-01 0.395D+00 0.493D+00
 Gap=     0.099 Goal=   None    Shift=    0.000
 RMSDP=2.91D-03 MaxDP=2.49D-01 DE=-2.03D-01 OVMax= 3.74D-02

 Cycle   7  Pass 1  IDiag  1:
 E= -2060.29983488117     Delta-E=       -0.002806796745 Rises=F Damp=F
 DIIS: error= 4.98D-03 at cycle   7 NSaved=   7.
 NSaved= 7 IEnMin= 7 EnMin= -2060.29983488117     IErMin= 7 ErrMin= 4.98D-03
 ErrMax= 4.98D-03  0.00D+00 EMaxC= 1.00D-01 BMatC= 1.11D-02 BMatP= 1.62D-02
 IDIUse=3 WtCom= 9.50D-01 WtEn= 4.98D-02
 Coeff-Com: -0.131D+00 0.169D+00-0.226D-01 0.487D-01 0.154D+00 0.306D+00
 Coeff-Com:  0.476D+00
 Coeff-En:   0.000D+00 0.000D+00 0.000D+00 0.000D+00 0.000D+00 0.443D+00
 Coeff-En:   0.557D+00
 Coeff:     -0.124D+00 0.161D+00-0.215D-01 0.463D-01 0.146D+00 0.313D+00
 Coeff:      0.480D+00
 Gap=     0.098 Goal=   None    Shift=    0.000
 RMSDP=1.84D-03 MaxDP=1.83D-01 DE=-2.81D-03 OVMax= 1.75D-02

 Cycle   8  Pass 1  IDiag  1:
 E= -2060.30559858989     Delta-E=       -0.005763708720 Rises=F Damp=F
 DIIS: error= 1.20D-03 at cycle   8 NSaved=   8.
 NSaved= 8 IEnMin= 8 EnMin= -2060.30559858989     IErMin= 8 ErrMin= 1.20D-03
 ErrMax= 1.20D-03  0.00D+00 EMaxC= 1.00D-01 BMatC= 5.78D-04 BMatP= 1.11D-02
 IDIUse=3 WtCom= 9.88D-01 WtEn= 1.20D-02
 Coeff-Com:  0.423D-01-0.587D-01-0.101D-02 0.228D-01-0.354D-01 0.106D+00
 Coeff-Com:  0.183D+00 0.741D+00
 Coeff-En:   0.000D+00 0.000D+00 0.000D+00 0.000D+00 0.000D+00 0.840D-01
 Coeff-En:   0.000D+00 0.916D+00
 Coeff:      0.418D-01-0.580D-01-0.993D-03 0.225D-01-0.350D-01 0.105D+00
 Coeff:      0.181D+00 0.743D+00
 Gap=     0.098 Goal=   None    Shift=    0.000
 RMSDP=7.31D-04 MaxDP=1.10D-01 DE=-5.76D-03 OVMax= 7.18D-03

 Cycle   9  Pass 1  IDiag  1:
 E= -2060.30590921102     Delta-E=       -0.000310621136 Rises=F Damp=F
 DIIS: error= 1.78D-04 at cycle   9 NSaved=   9.
 NSaved= 9 IEnMin= 9 EnMin= -2060.30590921102     IErMin= 9 ErrMin= 1.78D-04
 ErrMax= 1.78D-04  0.00D+00 EMaxC= 1.00D-01 BMatC= 2.73D-05 BMatP= 5.78D-04
 IDIUse=3 WtCom= 9.98D-01 WtEn= 1.78D-03
 Coeff-Com:  0.197D-01-0.279D-01 0.712D-03 0.461D-02-0.220D-01 0.595D-01
 Coeff-Com:  0.757D-01 0.414D+00 0.476D+00
 Coeff-En:   0.000D+00 0.000D+00 0.000D+00 0.000D+00 0.000D+00 0.000D+00
 Coeff-En:   0.000D+00 0.819D-01 0.918D+00
 Coeff:      0.196D-01-0.278D-01 0.711D-03 0.460D-02-0.220D-01 0.594D-01
 Coeff:      0.755D-01 0.413D+00 0.477D+00
 Gap=     0.098 Goal=   None    Shift=    0.000
 RMSDP=9.98D-05 MaxDP=1.35D-02 DE=-3.11D-04 OVMax= 1.58D-03

 Cycle  10  Pass 1  IDiag  1:
 E= -2060.30592770227     Delta-E=       -0.000018491244 Rises=F Damp=F
 DIIS: error= 7.91D-05 at cycle  10 NSaved=  10.
 NSaved=10 IEnMin=10 EnMin= -2060.30592770227     IErMin=10 ErrMin= 7.91D-05
 ErrMax= 7.91D-05  0.00D+00 EMaxC= 1.00D-01 BMatC= 3.12D-06 BMatP= 2.73D-05
 IDIUse=1 WtCom= 1.00D+00 WtEn= 0.00D+00
 Coeff-Com: -0.224D-02 0.281D-02 0.127D-03-0.279D-02-0.197D-02 0.164D-01
 Coeff-Com:  0.197D-01 0.704D-01 0.205D+00 0.692D+00
 Coeff:     -0.224D-02 0.281D-02 0.127D-03-0.279D-02-0.197D-02 0.164D-01
 Coeff:      0.197D-01 0.704D-01 0.205D+00 0.692D+00
 Gap=     0.098 Goal=   None    Shift=    0.000
 RMSDP=1.05D-04 MaxDP=1.52D-02 DE=-1.85D-05 OVMax= 6.54D-04

 Cycle  11  Pass 1  IDiag  1:
 E= -2060.30592990073     Delta-E=       -0.000002198463 Rises=F Damp=F
 DIIS: error= 2.82D-05 at cycle  11 NSaved=  11.
 NSaved=11 IEnMin=11 EnMin= -2060.30592990073     IErMin=11 ErrMin= 2.82D-05
 ErrMax= 2.82D-05  0.00D+00 EMaxC= 1.00D-01 BMatC= 5.93D-07 BMatP= 3.12D-06
 IDIUse=1 WtCom= 1.00D+00 WtEn= 0.00D+00
 Coeff-Com: -0.265D-02 0.367D-02 0.215D-05-0.200D-02 0.126D-02-0.142D-02
 Coeff-Com: -0.129D-02-0.270D-01 0.498D-01 0.423D+00 0.557D+00
 Coeff:     -0.265D-02 0.367D-02 0.215D-05-0.200D-02 0.126D-02-0.142D-02
 Coeff:     -0.129D-02-0.270D-01 0.498D-01 0.423D+00 0.557D+00
 Gap=     0.098 Goal=   None    Shift=    0.000
 RMSDP=3.85D-05 MaxDP=5.00D-03 DE=-2.20D-06 OVMax= 4.09D-04

 Cycle  12  Pass 1  IDiag  1:
 E= -2060.30593042755     Delta-E=       -0.000000526823 Rises=F Damp=F
 DIIS: error= 1.52D-05 at cycle  12 NSaved=  12.
 NSaved=12 IEnMin=12 EnMin= -2060.30593042755     IErMin=12 ErrMin= 1.52D-05
 ErrMax= 1.52D-05  0.00D+00 EMaxC= 1.00D-01 BMatC= 1.31D-07 BMatP= 5.93D-07
 IDIUse=1 WtCom= 1.00D+00 WtEn= 0.00D+00
 Coeff-Com:  0.483D-03-0.554D-03 0.105D-04-0.107D-03 0.373D-03-0.736D-02
 Coeff-Com: -0.796D-02-0.358D-01-0.242D-01 0.457D-01 0.299D+00 0.731D+00
 Coeff:      0.483D-03-0.554D-03 0.105D-04-0.107D-03 0.373D-03-0.736D-02
 Coeff:     -0.796D-02-0.358D-01-0.242D-01 0.457D-01 0.299D+00 0.731D+00
 Gap=     0.098 Goal=   None    Shift=    0.000
 RMSDP=2.86D-05 MaxDP=3.92D-03 DE=-5.27D-07 OVMax= 3.48D-04

 Cycle  13  Pass 1  IDiag  1:
 E= -2060.30593055526     Delta-E=       -0.000000127703 Rises=F Damp=F
 DIIS: error= 5.22D-06 at cycle  13 NSaved=  13.
 NSaved=13 IEnMin=13 EnMin= -2060.30593055526     IErMin=13 ErrMin= 5.22D-06
 ErrMax= 5.22D-06  0.00D+00 EMaxC= 1.00D-01 BMatC= 1.36D-08 BMatP= 1.31D-07
 IDIUse=1 WtCom= 1.00D+00 WtEn= 0.00D+00
 Coeff-Com:  0.248D-03-0.306D-03-0.832D-05 0.763D-04 0.152D-03-0.280D-02
 Coeff-Com: -0.263D-02-0.133D-01-0.148D-01-0.154D-01 0.904D-01 0.337D+00
 Coeff-Com:  0.621D+00
 Coeff:      0.248D-03-0.306D-03-0.832D-05 0.763D-04 0.152D-03-0.280D-02
 Coeff:     -0.263D-02-0.133D-01-0.148D-01-0.154D-01 0.904D-01 0.337D+00
 Coeff:      0.621D+00
 Gap=     0.098 Goal=   None    Shift=    0.000
 RMSDP=5.64D-06 MaxDP=1.00D-03 DE=-1.28D-07 OVMax= 6.46D-05

 Cycle  14  Pass 1  IDiag  1:
 E= -2060.30593056596     Delta-E=       -0.000000010704 Rises=F Damp=F
 DIIS: error= 1.56D-06 at cycle  14 NSaved=  14.
 NSaved=14 IEnMin=14 EnMin= -2060.30593056596     IErMin=14 ErrMin= 1.56D-06
 ErrMax= 1.56D-06  0.00D+00 EMaxC= 1.00D-01 BMatC= 2.14D-09 BMatP= 1.36D-08
 IDIUse=1 WtCom= 1.00D+00 WtEn= 0.00D+00
 Coeff-Com:  0.626D-04-0.979D-04-0.218D-05 0.710D-04-0.353D-04 0.265D-03
 Coeff-Com:  0.591D-03 0.877D-03-0.373D-02-0.263D-01-0.230D-01 0.265D-01
 Coeff-Com:  0.362D+00 0.663D+00
 Coeff:      0.626D-04-0.979D-04-0.218D-05 0.710D-04-0.353D-04 0.265D-03
 Coeff:      0.591D-03 0.877D-03-0.373D-02-0.263D-01-0.230D-01 0.265D-01
 Coeff:      0.362D+00 0.663D+00
 Gap=     0.098 Goal=   None    Shift=    0.000
 RMSDP=3.94D-06 MaxDP=5.81D-04 DE=-1.07D-08 OVMax= 4.24D-05

 Cycle  15  Pass 1  IDiag  1:
 E= -2060.30593056879     Delta-E=       -0.000000002834 Rises=F Damp=F
 DIIS: error= 3.26D-07 at cycle  15 NSaved=  15.
 NSaved=15 IEnMin=15 EnMin= -2060.30593056879     IErMin=15 ErrMin= 3.26D-07
 ErrMax= 3.26D-07  0.00D+00 EMaxC= 1.00D-01 BMatC= 1.05D-10 BMatP= 2.14D-09
 IDIUse=1 WtCom= 1.00D+00 WtEn= 0.00D+00
 Coeff-Com:  0.380D-04-0.570D-04 0.485D-06 0.337D-04-0.704D-04 0.500D-03
 Coeff-Com:  0.708D-03 0.230D-02 0.504D-03-0.992D-02-0.208D-01-0.273D-01
 Coeff-Com:  0.725D-01 0.271D+00 0.711D+00
 Coeff:      0.380D-04-0.570D-04 0.485D-06 0.337D-04-0.704D-04 0.500D-03
 Coeff:      0.708D-03 0.230D-02 0.504D-03-0.992D-02-0.208D-01-0.273D-01
 Coeff:      0.725D-01 0.271D+00 0.711D+00
 Gap=     0.098 Goal=   None    Shift=    0.000
 RMSDP=1.79D-06 MaxDP=2.72D-04 DE=-2.83D-09 OVMax= 1.54D-05

 Cycle  16  Pass 1  IDiag  1:
 E= -2060.30593056883     Delta-E=       -0.000000000036 Rises=F Damp=F
 DIIS: error= 2.65D-07 at cycle  16 NSaved=  16.
 NSaved=16 IEnMin=16 EnMin= -2060.30593056883     IErMin=16 ErrMin= 2.65D-07
 ErrMax= 2.65D-07  0.00D+00 EMaxC= 1.00D-01 BMatC= 4.58D-11 BMatP= 1.05D-10
 IDIUse=1 WtCom= 1.00D+00 WtEn= 0.00D+00
 Coeff-Com:  0.161D-04-0.225D-04 0.966D-06 0.735D-05-0.392D-04 0.284D-03
 Coeff-Com:  0.353D-03 0.127D-02 0.106D-02-0.863D-03-0.850D-02-0.238D-01
 Coeff-Com: -0.313D-01 0.320D-01 0.453D+00 0.576D+00
 Coeff:      0.161D-04-0.225D-04 0.966D-06 0.735D-05-0.392D-04 0.284D-03
 Coeff:      0.353D-03 0.127D-02 0.106D-02-0.863D-03-0.850D-02-0.238D-01
 Coeff:     -0.313D-01 0.320D-01 0.453D+00 0.576D+00
 Gap=     0.098 Goal=   None    Shift=    0.000
 RMSDP=7.18D-07 MaxDP=1.09D-04 DE=-3.59D-11 OVMax= 6.00D-06

 Cycle  17  Pass 1  IDiag  1:
 E= -2060.30593056896     Delta-E=       -0.000000000125 Rises=F Damp=F
 DIIS: error= 8.52D-08 at cycle  17 NSaved=  17.
 NSaved=17 IEnMin=17 EnMin= -2060.30593056896     IErMin=17 ErrMin= 8.52D-08
 ErrMax= 8.52D-08  0.00D+00 EMaxC= 1.00D-01 BMatC= 6.94D-12 BMatP= 4.58D-11
 IDIUse=1 WtCom= 1.00D+00 WtEn= 0.00D+00
 Coeff-Com:  0.710D-05-0.940D-05 0.748D-06-0.360D-06-0.139D-04 0.908D-04
 Coeff-Com:  0.104D-03 0.391D-03 0.474D-03 0.745D-03-0.197D-02-0.982D-02
 Coeff-Com: -0.273D-01-0.184D-01 0.152D+00 0.323D+00 0.581D+00
 Coeff:      0.710D-05-0.940D-05 0.748D-06-0.360D-06-0.139D-04 0.908D-04
 Coeff:      0.104D-03 0.391D-03 0.474D-03 0.745D-03-0.197D-02-0.982D-02
 Coeff:     -0.273D-01-0.184D-01 0.152D+00 0.323D+00 0.581D+00
 Gap=     0.098 Goal=   None    Shift=    0.000
 RMSDP=2.01D-07 MaxDP=3.40D-05 DE=-1.25D-10 OVMax= 1.69D-06

 Cycle  18  Pass 1  IDiag  1:
 E= -2060.30593056884     Delta-E=        0.000000000117 Rises=F Damp=F
 DIIS: error= 6.85D-08 at cycle  18 NSaved=  18.
 NSaved=18 IEnMin=17 EnMin= -2060.30593056896     IErMin=18 ErrMin= 6.85D-08
 ErrMax= 6.85D-08  0.00D+00 EMaxC= 1.00D-01 BMatC= 2.70D-12 BMatP= 6.94D-12
 IDIUse=1 WtCom= 1.00D+00 WtEn= 0.00D+00
 Coeff-Com: -0.137D-05 0.207D-05 0.558D-07-0.213D-05 0.232D-05-0.130D-04
 Coeff-Com: -0.153D-04-0.625D-04-0.103D-04 0.480D-03 0.825D-03 0.131D-03
 Coeff-Com: -0.645D-02-0.132D-01-0.195D-01 0.332D-01 0.253D+00 0.751D+00
 Coeff:     -0.137D-05 0.207D-05 0.558D-07-0.213D-05 0.232D-05-0.130D-04
 Coeff:     -0.153D-04-0.625D-04-0.103D-04 0.480D-03 0.825D-03 0.131D-03
 Coeff:     -0.645D-02-0.132D-01-0.195D-01 0.332D-01 0.253D+00 0.751D+00
 Gap=     0.098 Goal=   None    Shift=    0.000
 RMSDP=8.77D-08 MaxDP=1.68D-05 DE= 1.17D-10 OVMax= 6.41D-07

 Cycle  19  Pass 1  IDiag  1:
 E= -2060.30593056913     Delta-E=       -0.000000000291 Rises=F Damp=F
 DIIS: error= 1.69D-08 at cycle  19 NSaved=  19.
 NSaved=19 IEnMin=19 EnMin= -2060.30593056913     IErMin=19 ErrMin= 1.69D-08
 ErrMax= 1.69D-08  0.00D+00 EMaxC= 1.00D-01 BMatC= 1.14D-13 BMatP= 2.70D-12
 IDIUse=1 WtCom= 1.00D+00 WtEn= 0.00D+00
 Coeff-Com: -0.169D-05 0.230D-05-0.488D-07-0.760D-06 0.233D-05-0.139D-04
 Coeff-Com: -0.153D-04-0.549D-04-0.483D-04 0.517D-04 0.415D-03 0.101D-02
 Coeff-Com:  0.126D-02-0.135D-02-0.220D-01-0.250D-01 0.559D-02 0.194D+00
 Coeff-Com:  0.847D+00
 Coeff:     -0.169D-05 0.230D-05-0.488D-07-0.760D-06 0.233D-05-0.139D-04
 Coeff:     -0.153D-04-0.549D-04-0.483D-04 0.517D-04 0.415D-03 0.101D-02
 Coeff:      0.126D-02-0.135D-02-0.220D-01-0.250D-01 0.559D-02 0.194D+00
 Coeff:      0.847D+00
 Gap=     0.098 Goal=   None    Shift=    0.000
 RMSDP=4.76D-08 MaxDP=9.63D-06 DE=-2.91D-10 OVMax= 2.51D-07

 Cycle  20  Pass 1  IDiag  1:
 E= -2060.30593056889     Delta-E=        0.000000000238 Rises=F Damp=F
 DIIS: error= 6.69D-09 at cycle  20 NSaved=  20.
 NSaved=20 IEnMin=19 EnMin= -2060.30593056913     IErMin=20 ErrMin= 6.69D-09
 ErrMax= 6.69D-09  0.00D+00 EMaxC= 1.00D-01 BMatC= 1.65D-14 BMatP= 1.14D-13
 IDIUse=1 WtCom= 1.00D+00 WtEn= 0.00D+00
 Coeff-Com: -0.579D-06 0.771D-06-0.206D-07-0.927D-07 0.729D-06-0.483D-05
 Coeff-Com: -0.591D-05-0.162D-04-0.163D-04-0.192D-04 0.884D-04 0.381D-03
 Coeff-Com:  0.119D-02 0.787D-03-0.670D-02-0.120D-01-0.215D-01 0.214D-02
 Coeff-Com:  0.290D+00 0.745D+00
 Coeff:     -0.579D-06 0.771D-06-0.206D-07-0.927D-07 0.729D-06-0.483D-05
 Coeff:     -0.591D-05-0.162D-04-0.163D-04-0.192D-04 0.884D-04 0.381D-03
 Coeff:      0.119D-02 0.787D-03-0.670D-02-0.120D-01-0.215D-01 0.214D-02
 Coeff:      0.290D+00 0.745D+00
 Gap=     0.098 Goal=   None    Shift=    0.000
 RMSDP=2.30D-08 MaxDP=4.03D-06 DE= 2.38D-10 OVMax= 9.20D-08

 Cycle  21  Pass 1  IDiag  1:
 E= -2060.30593056893     Delta-E=       -0.000000000040 Rises=F Damp=F
 DIIS: error= 4.23D-09 at cycle  21 NSaved=  20.
 NSaved=20 IEnMin=18 EnMin= -2060.30593056913     IErMin=20 ErrMin= 4.23D-09
 ErrMax= 4.23D-09  0.00D+00 EMaxC= 1.00D-01 BMatC= 6.26D-15 BMatP= 1.65D-14
 IDIUse=1 WtCom= 1.00D+00 WtEn= 0.00D+00
 Large coefficients: NSaved= 20 BigCof=    0.00 CofMax=   10.00 Det=-4.63D-15
 Inversion failed.  Reducing to 19 matrices.
 Large coefficients: NSaved= 19 BigCof=    0.00 CofMax=   10.00 Det=-4.66D-15
 Inversion failed.  Reducing to 18 matrices.
 Large coefficients: NSaved= 18 BigCof=    0.00 CofMax=   10.00 Det=-4.71D-15
 Inversion failed.  Reducing to 17 matrices.
 Large coefficients: NSaved= 17 BigCof=    0.00 CofMax=   10.00 Det=-4.82D-15
 Inversion failed.  Reducing to 16 matrices.
 Large coefficients: NSaved= 16 BigCof=    0.00 CofMax=   10.00 Det=-4.87D-15
 Inversion failed.  Reducing to 15 matrices.
 Coeff-Com: -0.900D-06-0.163D-06 0.466D-05 0.153D-04-0.673D-07-0.321D-04
 Coeff-Com: -0.814D-04-0.134D-04 0.125D-02 0.204D-02-0.170D-02-0.204D-01
 Coeff-Com: -0.670D-01 0.259D+00 0.827D+00
 Coeff:     -0.900D-06-0.163D-06 0.466D-05 0.153D-04-0.673D-07-0.321D-04
 Coeff:     -0.814D-04-0.134D-04 0.125D-02 0.204D-02-0.170D-02-0.204D-01
 Coeff:     -0.670D-01 0.259D+00 0.827D+00
 Gap=     0.098 Goal=   None    Shift=    0.000
 RMSDP=3.26D-08 MaxDP=6.89D-06 DE=-4.00D-11 OVMax= 4.63D-08

 Cycle  22  Pass 1  IDiag  1:
 E= -2060.30593056894     Delta-E=       -0.000000000013 Rises=F Damp=F
 DIIS: error= 8.52D-10 at cycle  22 NSaved=  16.
 NSaved=16 IEnMin=13 EnMin= -2060.30593056913     IErMin=16 ErrMin= 8.52D-10
 ErrMax= 8.52D-10  0.00D+00 EMaxC= 1.00D-01 BMatC= 2.74D-16 BMatP= 6.26D-15
 IDIUse=1 WtCom= 1.00D+00 WtEn= 0.00D+00
 Large coefficients: NSaved= 16 BigCof=    0.00 CofMax=   10.00 Det=-1.25D-15
 Inversion failed.  Reducing to 15 matrices.
 Coeff-Com: -0.728D-06-0.281D-06-0.111D-06-0.390D-05 0.246D-05 0.845D-04
 Coeff-Com:  0.156D-03-0.606D-04-0.283D-03-0.989D-03-0.174D-02-0.170D-01
 Coeff-Com: -0.179D-01 0.277D+00 0.761D+00
 Coeff:     -0.728D-06-0.281D-06-0.111D-06-0.390D-05 0.246D-05 0.845D-04
 Coeff:      0.156D-03-0.606D-04-0.283D-03-0.989D-03-0.174D-02-0.170D-01
 Coeff:     -0.179D-01 0.277D+00 0.761D+00
 Gap=     0.098 Goal=   None    Shift=    0.000
 RMSDP=6.94D-08 MaxDP=1.77D-05 DE=-1.27D-11 OVMax= 1.50D-08

 Cycle  23  Pass 1  IDiag  1:
 E= -2060.30593056895     Delta-E=       -0.000000000004 Rises=F Damp=F
 DIIS: error= 4.24D-10 at cycle  23 NSaved=  16.
 NSaved=16 IEnMin=12 EnMin= -2060.30593056913     IErMin=16 ErrMin= 4.24D-10
 ErrMax= 4.24D-10  0.00D+00 EMaxC= 1.00D-01 BMatC= 1.88D-16 BMatP= 2.74D-16
 IDIUse=1 WtCom= 1.00D+00 WtEn= 0.00D+00
 Large coefficients: NSaved= 16 BigCof=    0.00 CofMax=   10.00 Det=-4.97D-16
 Inversion failed.  Reducing to 15 matrices.
 Coeff-Com:  0.391D-06 0.151D-05-0.227D-05-0.550D-05-0.454D-05-0.184D-04
 Coeff-Com: -0.198D-03-0.254D-03-0.424D-03 0.309D-03-0.643D-02-0.221D-01
 Coeff-Com:  0.103D+00 0.426D+00 0.500D+00
 Coeff:      0.391D-06 0.151D-05-0.227D-05-0.550D-05-0.454D-05-0.184D-04
 Coeff:     -0.198D-03-0.254D-03-0.424D-03 0.309D-03-0.643D-02-0.221D-01
 Coeff:      0.103D+00 0.426D+00 0.500D+00
 Gap=     0.098 Goal=   None    Shift=    0.000
 RMSDP=9.73D-09 MaxDP=1.06D-06 DE=-3.64D-12 OVMax= 7.81D-09

 Cycle  24  Pass 1  IDiag  1:
 E= -2060.30593056908     Delta-E=       -0.000000000128 Rises=F Damp=F
 DIIS: error= 6.09D-10 at cycle  24 NSaved=  16.
 NSaved=16 IEnMin=11 EnMin= -2060.30593056913     IErMin=15 ErrMin= 4.24D-10
 ErrMax= 6.09D-10  0.00D+00 EMaxC= 1.00D-01 BMatC= 3.48D-17 BMatP= 1.88D-16
 IDIUse=1 WtCom= 1.00D+00 WtEn= 0.00D+00
 Large coefficients: NSaved= 16 BigCof=    0.00 CofMax=   10.00 Det=-1.82D-16
 Inversion failed.  Reducing to 15 matrices.
 Coeff-Com:  0.178D-06-0.145D-05-0.173D-05 0.197D-05 0.273D-05-0.525D-04
 Coeff-Com: -0.735D-04-0.270D-03-0.509D-03-0.674D-02-0.212D-01 0.224D-01
 Coeff-Com:  0.173D+00 0.309D+00 0.524D+00
 Coeff:      0.178D-06-0.145D-05-0.173D-05 0.197D-05 0.273D-05-0.525D-04
 Coeff:     -0.735D-04-0.270D-03-0.509D-03-0.674D-02-0.212D-01 0.224D-01
 Coeff:      0.173D+00 0.309D+00 0.524D+00
 Gap=     0.098 Goal=   None    Shift=    0.000
 RMSDP=3.11D-08 MaxDP=8.01D-06 DE=-1.28D-10 OVMax= 4.66D-09

 Cycle  25  Pass 1  IDiag  1:
 E= -2060.30593056899     Delta-E=        0.000000000090 Rises=F Damp=F
 DIIS: error= 1.87D-10 at cycle  25 NSaved=  16.
 NSaved=16 IEnMin=10 EnMin= -2060.30593056913     IErMin=16 ErrMin= 1.87D-10
 ErrMax= 1.87D-10  0.00D+00 EMaxC= 1.00D-01 BMatC= 1.08D-17 BMatP= 3.48D-17
 IDIUse=1 WtCom= 1.00D+00 WtEn= 0.00D+00
 Large coefficients: NSaved= 16 BigCof=    0.00 CofMax=   10.00 Det=-2.21D-17
 Inversion failed.  Reducing to 15 matrices.
 Coeff-Com: -0.556D-06 0.272D-06 0.240D-05 0.407D-05-0.318D-04-0.427D-04
 Coeff-Com: -0.128D-03-0.865D-04-0.348D-02-0.155D-01 0.439D-02 0.994D-01
 Coeff-Com:  0.177D+00 0.290D+00 0.448D+00
 Coeff:     -0.556D-06 0.272D-06 0.240D-05 0.407D-05-0.318D-04-0.427D-04
 Coeff:     -0.128D-03-0.865D-04-0.348D-02-0.155D-01 0.439D-02 0.994D-01
 Coeff:      0.177D+00 0.290D+00 0.448D+00
 Gap=     0.098 Goal=   None    Shift=    0.000
 RMSDP=1.12D-08 MaxDP=1.63D-06 DE= 9.00D-11 OVMax= 1.14D-09

 Cycle  26  Pass 1  IDiag  1:
 E= -2060.30593056888     Delta-E=        0.000000000105 Rises=F Damp=F
 DIIS: error= 1.86D-10 at cycle  26 NSaved=  16.
 NSaved=16 IEnMin= 9 EnMin= -2060.30593056913     IErMin=16 ErrMin= 1.86D-10
 ErrMax= 1.86D-10  0.00D+00 EMaxC= 1.00D-01 BMatC= 3.73D-18 BMatP= 1.08D-17
 IDIUse=1 WtCom= 1.00D+00 WtEn= 0.00D+00
 Large coefficients: NSaved= 16 BigCof=    0.00 CofMax=   10.00 Det=-6.71D-18
 Inversion failed.  Reducing to 15 matrices.
 Coeff-Com:  0.381D-06-0.918D-06-0.123D-05-0.199D-04-0.906D-05 0.109D-04
 Coeff-Com:  0.186D-03-0.136D-02-0.884D-02-0.519D-02 0.364D-01 0.772D-01
 Coeff-Com:  0.113D+00 0.225D+00 0.564D+00
 Coeff:      0.381D-06-0.918D-06-0.123D-05-0.199D-04-0.906D-05 0.109D-04
 Coeff:      0.186D-03-0.136D-02-0.884D-02-0.519D-02 0.364D-01 0.772D-01
 Coeff:      0.113D+00 0.225D+00 0.564D+00
 Gap=     0.098 Goal=   None    Shift=    0.000
 RMSDP=9.74D-09 MaxDP=1.23D-06 DE= 1.05D-10 OVMax= 8.70D-10

 Cycle  27  Pass 1  IDiag  1:
 E= -2060.30593056888     Delta-E=       -0.000000000003 Rises=F Damp=F
 DIIS: error= 2.12D-10 at cycle  27 NSaved=  16.
 NSaved=16 IEnMin= 8 EnMin= -2060.30593056913     IErMin=15 ErrMin= 1.86D-10
 ErrMax= 2.12D-10  0.00D+00 EMaxC= 1.00D-01 BMatC= 4.30D-18 BMatP= 3.73D-18
 IDIUse=1 WtCom= 1.00D+00 WtEn= 0.00D+00
 Large coefficients: NSaved= 16 BigCof=    0.00 CofMax=   10.00 Det=-2.64D-18
 Inversion failed.  Reducing to 15 matrices.
 Coeff-Com: -0.186D-05-0.202D-05-0.158D-04-0.386D-05 0.217D-04 0.205D-03
 Coeff-Com: -0.823D-03-0.716D-02-0.483D-02 0.313D-01 0.596D-01 0.659D-01
 Coeff-Com:  0.242D+00 0.342D+00 0.272D+00
 Coeff:     -0.186D-05-0.202D-05-0.158D-04-0.386D-05 0.217D-04 0.205D-03
 Coeff:     -0.823D-03-0.716D-02-0.483D-02 0.313D-01 0.596D-01 0.659D-01
 Coeff:      0.242D+00 0.342D+00 0.272D+00
 Gap=     0.098 Goal=   None    Shift=    0.000
 RMSDP=6.85D-09 MaxDP=1.08D-06 DE=-3.18D-12 OVMax= 3.08D-10

 Cycle  28  Pass 1  IDiag  1:
 E= -2060.30593056906     Delta-E=       -0.000000000175 Rises=F Damp=F
 DIIS: error= 3.91D-10 at cycle  28 NSaved=  16.
 NSaved=16 IEnMin= 7 EnMin= -2060.30593056913     IErMin=14 ErrMin= 1.86D-10
 ErrMax= 3.91D-10  0.00D+00 EMaxC= 1.00D-01 BMatC= 3.40D-18 BMatP= 3.73D-18
 IDIUse=1 WtCom= 1.00D+00 WtEn= 0.00D+00
 Large coefficients: NSaved= 16 BigCof=    0.00 CofMax=   10.00 Det=-2.16D-18
 Inversion failed.  Reducing to 15 matrices.
 Coeff-Com:  0.429D-06-0.759D-05-0.430D-06-0.131D-04 0.257D-05-0.105D-02
 Coeff-Com: -0.580D-02-0.567D-02 0.196D-01 0.561D-01 0.966D-01 0.174D+00
 Coeff-Com:  0.174D+00 0.207D+00 0.285D+00
 Coeff:      0.429D-06-0.759D-05-0.430D-06-0.131D-04 0.257D-05-0.105D-02
 Coeff:     -0.580D-02-0.567D-02 0.196D-01 0.561D-01 0.966D-01 0.174D+00
 Coeff:      0.174D+00 0.207D+00 0.285D+00
 Gap=     0.098 Goal=   None    Shift=    0.000
 RMSDP=9.71D-09 MaxDP=2.54D-06 DE=-1.75D-10 OVMax= 4.11D-10

 Cycle  29  Pass 1  IDiag  1:
 E= -2060.30593056901     Delta-E=        0.000000000045 Rises=F Damp=F
 DIIS: error= 1.00D-10 at cycle  29 NSaved=  16.
 NSaved=16 IEnMin= 6 EnMin= -2060.30593056913     IErMin=16 ErrMin= 1.00D-10
 ErrMax= 1.00D-10  0.00D+00 EMaxC= 1.00D-01 BMatC= 1.36D-18 BMatP= 3.40D-18
 IDIUse=1 WtCom= 1.00D+00 WtEn= 0.00D+00
 Large coefficients: NSaved= 16 BigCof=    0.00 CofMax=   10.00 Det=-2.17D-18
 Inversion failed.  Reducing to 15 matrices.
 Coeff-Com: -0.702D-05 0.294D-06 0.647D-05 0.465D-04-0.488D-03-0.349D-02
 Coeff-Com: -0.499D-02 0.822D-02 0.297D-01 0.544D-01 0.547D-01 0.179D+00
 Coeff-Com:  0.422D-01 0.220D+00 0.420D+00
 Coeff:     -0.702D-05 0.294D-06 0.647D-05 0.465D-04-0.488D-03-0.349D-02
 Coeff:     -0.499D-02 0.822D-02 0.297D-01 0.544D-01 0.547D-01 0.179D+00
 Coeff:      0.422D-01 0.220D+00 0.420D+00
 Gap=     0.098 Goal=   None    Shift=    0.000
 RMSDP=2.20D-09 MaxDP=2.75D-07 DE= 4.46D-11 OVMax= 2.47D-10

 Error on total polarization charges =  0.05761
 SCF Done:  E(RB3LYP) =  -2060.30593057     A.U. after   29 cycles
            NFock= 29  Conv=0.22D-08     -V/T= 2.0052
 KE= 2.049722548966D+03 PE=-8.866192667716D+03 EE= 2.762307294745D+03
 SMD-CDS (non-electrostatic) energy       (kcal/mol) =      -1.47
 (included in total energy above)
 Leave Link  502 at Wed Feb  1 02:14:20 2017, MaxMem=  8053063680 cpu:      6679.1
 (Enter /mnt/data/applications/G09/g09/l508.exe)
 QCSCF skips out because SCF is already converged.
 Leave Link  508 at Wed Feb  1 02:14:20 2017, MaxMem=  8053063680 cpu:         0.0
 (Enter /mnt/data/applications/G09/g09/l601.exe)
 Copying SCF densities to generalized density rwf, IOpCl= 0 IROHF=0.

 **********************************************************************

            Population analysis using the SCF density.

 **********************************************************************

 Orbital symmetries:
       Occupied  (A) (A) (A) (A) (A) (A) (A) (A) (A) (A) (A) (A)
                 (A) (A) (A) (A) (A) (A) (A) (A) (A) (A) (A) (A)
                 (A) (A) (A) (A) (A) (A) (A) (A) (A) (A) (A) (A)
                 (A) (A) (A) (A) (A) (A) (A) (A) (A) (A) (A) (A)
                 (A) (A) (A) (A) (A) (A) (A) (A) (A) (A) (A) (A)
                 (A) (A) (A) (A) (A) (A) (A) (A) (A) (A) (A) (A)
                 (A) (A) (A) (A) (A) (A) (A) (A) (A)
       Virtual   (A) (A) (A) (A) (A) (A) (A) (A) (A) (A) (A) (A)
                 (A) (A) (A) (A) (A) (A) (A) (A) (A) (A) (A) (A)
                 (A) (A) (A) (A) (A) (A) (A) (A) (A) (A) (A) (A)
                 (A) (A) (A) (A) (A) (A) (A) (A) (A) (A) (A) (A)
                 (A) (A) (A) (A) (A) (A) (A) (A) (A) (A) (A) (A)
                 (A) (A) (A) (A) (A) (A) (A) (A) (A) (A) (A) (A)
                 (A) (A) (A) (A) (A) (A) (A) (A) (A) (A) (A) (A)
                 (A) (A) (A) (A) (A) (A) (A) (A) (A) (A) (A) (A)
                 (A) (A) (A) (A) (A) (A) (A) (A) (A) (A) (A) (A)
                 (A) (A) (A) (A) (A) (A) (A) (A) (A) (A) (A) (A)
                 (A) (A) (A) (A) (A) (A) (A) (A) (A) (A) (A) (A)
                 (A) (A) (A) (A) (A) (A) (A) (A) (A) (A) (A) (A)
                 (A) (A) (A) (A) (A) (A) (A) (A) (A) (A) (A) (A)
                 (A) (A) (A) (A) (A) (A) (A) (A) (A) (A) (A) (A)
                 (A) (A) (A) (A) (A) (A) (A) (A) (A) (A) (A) (A)
                 (A) (A) (A) (A) (A) (A) (A) (A) (A) (A) (A) (A)
                 (A) (A) (A) (A) (A) (A) (A) (A) (A) (A) (A) (A)
                 (A) (A) (A) (A) (A) (A) (A) (A) (A) (A) (A) (A)
                 (A) (A) (A) (A) (A) (A) (A) (A) (A) (A) (A) (A)
                 (A) (A) (A) (A) (A) (A) (A) (A) (A) (A) (A) (A)
                 (A) (A) (A) (A) (A) (A) (A) (A) (A) (A) (A) (A)
                 (A) (A) (A) (A) (A) (A) (A) (A) (A) (A) (A) (A)
                 (A) (A) (A) (A) (A) (A) (A) (A) (A) (A) (A) (A)
                 (A) (A) (A) (A) (A) (A) (A) (A) (A) (A) (A) (A)
                 (A) (A) (A) (A) (A) (A) (A) (A) (A) (A) (A) (A)
                 (A) (A) (A) (A) (A) (A) (A) (A) (A) (A) (A) (A)
                 (A) (A) (A) (A) (A) (A) (A) (A) (A) (A) (A) (A)
                 (A) (A) (A) (A) (A) (A) (A) (A) (A) (A) (A) (A)
                 (A) (A) (A) (A) (A) (A) (A) (A) (A) (A) (A) (A)
                 (A) (A) (A) (A) (A) (A) (A) (A) (A) (A) (A) (A)
                 (A) (A) (A) (A) (A) (A) (A) (A) (A) (A) (A) (A)
                 (A) (A) (A) (A) (A) (A) (A) (A) (A) (A) (A) (A)
                 (A) (A) (A) (A)
 The electronic state is 1-A.
 Alpha  occ. eigenvalues -- -235.43680 -27.29441 -23.37557 -23.37434 -23.36815
 Alpha  occ. eigenvalues --  -19.16258 -19.16258 -19.16227 -14.37897 -14.37896
 Alpha  occ. eigenvalues --  -14.37750 -14.37749 -10.25732 -10.23135 -10.23075
 Alpha  occ. eigenvalues --  -10.23075 -10.21272 -10.21271 -10.21227 -10.21227
 Alpha  occ. eigenvalues --  -10.20955 -10.20955 -10.20722 -10.20722  -3.09182
 Alpha  occ. eigenvalues --   -1.95441  -1.95221  -1.94311  -1.07138  -1.07079
 Alpha  occ. eigenvalues --   -1.06789  -1.03244  -1.01809  -0.93199  -0.89554
 Alpha  occ. eigenvalues --   -0.78188  -0.74752  -0.73216  -0.71159  -0.67561
 Alpha  occ. eigenvalues --   -0.60912  -0.60132  -0.57770  -0.55886  -0.52437
 Alpha  occ. eigenvalues --   -0.52199  -0.51625  -0.50309  -0.50283  -0.48107
 Alpha  occ. eigenvalues --   -0.45892  -0.45123  -0.45061  -0.44382  -0.43592
 Alpha  occ. eigenvalues --   -0.43380  -0.41940  -0.41667  -0.40782  -0.40769
 Alpha  occ. eigenvalues --   -0.40284  -0.40146  -0.39240  -0.39166  -0.39126
 Alpha  occ. eigenvalues --   -0.38533  -0.37920  -0.37445  -0.37441  -0.35728
 Alpha  occ. eigenvalues --   -0.35677  -0.28301  -0.27810  -0.27734  -0.26955
 Alpha  occ. eigenvalues --   -0.24265  -0.22809  -0.17265  -0.16717  -0.16583
 Alpha  occ. eigenvalues --   -0.10101
 Alpha virt. eigenvalues --   -0.00291   0.01875   0.01950   0.02033   0.02822
 Alpha virt. eigenvalues --    0.02906   0.03269   0.03403   0.03736   0.04093
 Alpha virt. eigenvalues --    0.04417   0.04701   0.04961   0.05431   0.05495
 Alpha virt. eigenvalues --    0.05634   0.05814   0.06122   0.06133   0.06770
 Alpha virt. eigenvalues --    0.06822   0.06902   0.07025   0.07408   0.07792
 Alpha virt. eigenvalues --    0.08061   0.08318   0.09006   0.09743   0.09805
 Alpha virt. eigenvalues --    0.10061   0.10296   0.10838   0.11631   0.11833
 Alpha virt. eigenvalues --    0.12345   0.12481   0.12892   0.13083   0.14272
 Alpha virt. eigenvalues --    0.14911   0.14996   0.15002   0.15896   0.16035
 Alpha virt. eigenvalues --    0.16470   0.16674   0.16958   0.17411   0.17744
 Alpha virt. eigenvalues --    0.18091   0.18928   0.19095   0.19707   0.19778
 Alpha virt. eigenvalues --    0.19901   0.20089   0.20159   0.20658   0.21236
 Alpha virt. eigenvalues --    0.21584   0.21821   0.22323   0.22539   0.22681
 Alpha virt. eigenvalues --    0.23128   0.24012   0.24354   0.24828   0.24840
 Alpha virt. eigenvalues --    0.25318   0.26377   0.26452   0.26914   0.27651
 Alpha virt. eigenvalues --    0.27815   0.28387   0.28682   0.29316   0.29453
 Alpha virt. eigenvalues --    0.29681   0.30350   0.30940   0.31789   0.31961
 Alpha virt. eigenvalues --    0.32368   0.32458   0.32591   0.32859   0.33495
 Alpha virt. eigenvalues --    0.34086   0.34109   0.34366   0.34808   0.35447
 Alpha virt. eigenvalues --    0.35613   0.36187   0.36941   0.37383   0.37623
 Alpha virt. eigenvalues --    0.37864   0.38900   0.39263   0.40002   0.40122
 Alpha virt. eigenvalues --    0.41093   0.41222   0.42598   0.43962   0.44959
 Alpha virt. eigenvalues --    0.45151   0.45301   0.46402   0.47088   0.48223
 Alpha virt. eigenvalues --    0.49124   0.49401   0.50030   0.50764   0.51780
 Alpha virt. eigenvalues --    0.52685   0.53368   0.54192   0.55981   0.57748
 Alpha virt. eigenvalues --    0.57943   0.60403   0.62736   0.63162   0.64885
 Alpha virt. eigenvalues --    0.67944   0.68744   0.69066   0.69654   0.71154
 Alpha virt. eigenvalues --    0.71651   0.73087   0.74636   0.74933   0.77029
 Alpha virt. eigenvalues --    0.77505   0.79449   0.80714   0.81285   0.83038
 Alpha virt. eigenvalues --    0.83740   0.84384   0.84758   0.84974   0.85571
 Alpha virt. eigenvalues --    0.87742   0.88380   0.88866   0.89410   0.89596
 Alpha virt. eigenvalues --    0.90693   0.91103   0.91411   0.92530   0.93272
 Alpha virt. eigenvalues --    0.93976   0.95027   0.96679   0.97258   0.98684
 Alpha virt. eigenvalues --    0.98909   0.99650   0.99844   1.01056   1.01800
 Alpha virt. eigenvalues --    1.02468   1.02502   1.04216   1.04386   1.07033
 Alpha virt. eigenvalues --    1.07099   1.07694   1.08838   1.09539   1.11526
 Alpha virt. eigenvalues --    1.13074   1.13601   1.14223   1.17495   1.19072
 Alpha virt. eigenvalues --    1.21431   1.21779   1.24361   1.24437   1.28492
 Alpha virt. eigenvalues --    1.28786   1.30650   1.30816   1.31833   1.32189
 Alpha virt. eigenvalues --    1.32575   1.33154   1.33270   1.35448   1.35544
 Alpha virt. eigenvalues --    1.36160   1.36199   1.36805   1.38233   1.38654
 Alpha virt. eigenvalues --    1.39155   1.40291   1.41307   1.43952   1.44938
 Alpha virt. eigenvalues --    1.47447   1.47849   1.48529   1.49456   1.49717
 Alpha virt. eigenvalues --    1.51132   1.51477   1.52539   1.52623   1.56125
 Alpha virt. eigenvalues --    1.56833   1.58375   1.59349   1.60192   1.61442
 Alpha virt. eigenvalues --    1.62593   1.65298   1.66406   1.67859   1.68112
 Alpha virt. eigenvalues --    1.68301   1.71775   1.72356   1.72544   1.73494
 Alpha virt. eigenvalues --    1.75221   1.77981   1.79609   1.81209   1.81700
 Alpha virt. eigenvalues --    1.82396   1.85096   1.85214   1.86143   1.86207
 Alpha virt. eigenvalues --    1.87521   1.87726   1.90199   1.90740   1.92006
 Alpha virt. eigenvalues --    1.93425   1.95324   1.95720   1.96757   1.96837
 Alpha virt. eigenvalues --    1.98513   1.99464   1.99505   2.00294   2.01406
 Alpha virt. eigenvalues --    2.01737   2.03032   2.03103   2.04255   2.04620
 Alpha virt. eigenvalues --    2.05700   2.05748   2.06534   2.07954   2.08618
 Alpha virt. eigenvalues --    2.09542   2.11129   2.11583   2.13321   2.13364
 Alpha virt. eigenvalues --    2.14205   2.16245   2.17011   2.17265   2.18079
 Alpha virt. eigenvalues --    2.19330   2.20763   2.21760   2.23514   2.25390
 Alpha virt. eigenvalues --    2.25934   2.27142   2.27215   2.27835   2.29039
 Alpha virt. eigenvalues --    2.31551   2.34314   2.35524   2.35997   2.36014
 Alpha virt. eigenvalues --    2.37382   2.39186   2.39616   2.40972   2.42547
 Alpha virt. eigenvalues --    2.43544   2.44748   2.46705   2.48729   2.49185
 Alpha virt. eigenvalues --    2.51528   2.53593   2.55539   2.56230   2.57734
 Alpha virt. eigenvalues --    2.59029   2.59517   2.60487   2.61151   2.61658
 Alpha virt. eigenvalues --    2.65251   2.68240   2.69296   2.69985   2.72075
 Alpha virt. eigenvalues --    2.74240   2.75463   2.76671   2.78193   2.78718
 Alpha virt. eigenvalues --    2.79650   2.83613   2.84545   2.85220   2.85394
[...]
 ,-0.00000954,-0.00005099,0.00002688,0.00000684,-0.00000647,-0.00002439
 ,-0.00004446,-0.00001152,0.00001074,-0.00001680,-0.00001853,0.00001435
 ,0.00003793,-0.00003688,-0.00000507,0.00071828,-0.00084355,-0.00005266
 ,-0.00010214,0.00000974,-0.00002671,0.00003189,-0.00001034,-0.00001264
 ,-0.00259989,0.00122693,0.00043897,0.00198680,-0.00070810,-0.00020175,
 0.00008634,0.00015472,0.00028483,-0.00013783,-0.00008773,-0.00012725,-
 0.00000335,-0.00005317,-0.00014431,0.00006480,0.00001127,0.00000205,-0
 .00006300,0.00004389,-0.00001336,-0.00005159,0.00000507,-0.00002197,-0
 .00000029,-0.00000217,0.00000368,0.00000212,0.00000042,0.00000032,-0.1
 0088537,0.06008777,0.08440072,-0.00839365,0.01110928,0.01598233,0.1073
 4917,-0.00480215,-0.00151061,-0.00297523,0.01937673,-0.02360670,-0.009
 75635,-0.00013636,-0.00088624,0.00089270,0.00091439,-0.00095389,0.0013
 6196,0.00229440,0.00237994,-0.00146930,-0.00022424,0.00001255,0.000164
 57,-0.00000406,-0.00013251,-0.00000367,-0.00030462,0.00021238,0.000025
 31,0.00023501,0.00001490,-0.00007304,0.00006313,-0.00000320,-0.0000097
 1,-0.00002124,0.00000369,0.00001846,0.00111908,0.00132522,-0.00030257,
 -0.00043544,-0.00047161,-0.00006964,0.00044662,0.00037546,0.00024716,0
 .00024108,-0.00055613,0.00004885,-0.00053415,0.00022725,-0.00025320,-0
 .00027581,-0.00088899,0.00061483,0.00006658,0.00059594,-0.00063260,0.0
 0001183,0.00004326,0.00033230,-0.00000996,-0.00013647,-0.00023280,0.00
 010977,-0.00009496,0.00001196,0.00004739,-0.00001557,0.00003108,0.0000
 0578,-0.00000691,-0.00000248,0.00000764,-0.00000907,-0.00000309,0.0601
 0839,-0.11770067,-0.09919143,-0.00785740,0.01129137,0.01291690,-0.0750
 9276,0.13531165,0.00059051,0.00056769,0.00137776,-0.01104905,0.0129999
 6,0.01541911,-0.00007691,0.00042232,-0.00050372,-0.00028177,0.00020854
 ,-0.00054380,-0.00059118,-0.00059223,0.00063621,0.00020705,-0.00001174
 ,-0.00018357,0.00000033,-0.00001844,0.00004007,0.00002191,0.00003228,-
 0.00012632,-0.00002272,-0.00000218,0.00002808,-0.00000582,-0.00000741,
 0.00001073,0.00001675,-0.00000478,-0.00000342,-0.00004646,-0.00014329,
 -0.00005395,-0.00000460,-0.00003180,0.00009050,0.00000390,-0.00000351,
 -0.00002799,-0.00040478,0.00003642,-0.00026551,-0.00025988,-0.00028631
 ,-0.00021134,0.00009461,0.00010976,-0.00026875,0.00002440,-0.00007875,
 0.00019027,0.00004105,-0.00003723,-0.00021342,0.00009636,0.00003283,0.
 00002391,-0.00005457,0.00001464,-0.00002380,-0.00001818,0.00000392,-0.
 00000424,-0.00000071,0.00000008,0.00000316,-0.00000168,0.00000148,0.00
 000050,0.08869000,-0.10309841,-0.19033487,0.00506515,-0.00798977,-0.01
 002363,-0.09138641,0.10653154,0.19784116,0.00197978,0.00232446,-0.0012
 9749,-0.01611389,-0.00365660,-0.01120780,-0.00088461,0.00015402,-0.000
 35701,-0.00035495,0.00035425,0.00002719,0.00034942,-0.00179046,0.00091
 242,0.00017333,0.00028785,0.00006194,-0.00001107,0.00011497,-0.0000080
 3,0.00021526,-0.00011904,-0.00006915,-0.00013563,0.00000223,0.00005005
 ,-0.00005035,0.00000832,0.00001098,0.00001570,0.00000564,-0.00001658,-
 0.00087816,-0.00047773,-0.00052494,0.00031384,0.00022186,0.00017670,-0
 .00034047,-0.00023411,-0.00021865,-0.00091224,0.00060214,0.00025438,0.
 00072323,-0.00017304,0.00000378,-0.00001475,0.00033299,-0.00033310,-0.
 00001206,-0.00026190,0.00032520,0.00002353,0.00001035,-0.00000621,0.00
 037402,0.00016433,-0.00017455,-0.00002732,0.00000661,-0.00000600,-0.00
 009979,0.00004267,-0.00004582,-0.00000437,0.00000574,0.00000207,-0.000
 00887,0.00000481,0.00000312,-0.16977792,-0.06328626,-0.11599609,-0.010
 35368,-0.00541311,-0.01339075,0.01178930,0.00465866,0.00935672,0.18401
 755,-0.00189378,-0.00315860,0.00185231,0.02655315,0.00626561,0.0219921
 9,0.00163073,-0.00109296,0.00070693,0.00070772,0.00057249,0.00033920,0
 .00109154,0.00093460,0.00089698,-0.00017865,-0.00042862,-0.00019909,0.
 00007864,0.00007985,0.00000612,0.00003677,-0.00004705,-0.00006137,-0.0
 0001606,0.00001193,0.00000814,0.00001841,0.00000985,-0.00001316,-0.000
 03821,0.00007341,0.00000884,-0.00077688,0.00031266,-0.00054006,0.00017
 752,0.00005087,0.00010454,-0.00014487,-0.00005207,-0.00006920,0.000402
 10,-0.00053084,-0.00020925,-0.00068959,0.00028015,0.00008936,-0.000059
 20,-0.00014627,-0.00013768,0.00001783,0.00003241,0.00004894,-0.0000178
 1,-0.00003723,-0.00015514,-0.00002453,-0.00063701,0.00016212,0.0000137
 8,-0.00001951,-0.00001686,0.00011968,-0.00004049,0.00007606,-0.0000004
 8,0.00000543,-0.00000454,-0.00000476,0.00000373,0.00000276,-0.07282574
 ,-0.08799126,-0.06817978,-0.00849173,-0.00461205,-0.01279508,-0.011766
 63,-0.00477029,-0.00865613,0.06607760,0.09492179,0.00264179,0.00146503
 ,-0.00054076,-0.01249395,-0.00149969,-0.00931283,-0.00065921,0.0006717
 4,0.00002017,-0.00054172,0.00033729,-0.00045149,-0.00067126,-0.0013213
 0,0.00084351,0.00023596,0.00019548,0.00013709,-0.00003173,0.00000565,-
 0.00000045,0.00008685,-0.00005663,0.00001859,-0.00005553,0.00000145,0.
 00001869,-0.00002915,-0.00000292,0.00000962,0.00001957,-0.00002339,-0.
 00001257,-0.00003403,-0.00023535,0.00041621,0.00009497,0.00011960,0.00
 007196,-0.00009133,-0.00010625,-0.00007987,0.00050182,-0.00008339,-0.0
 0014905,-0.00043520,-0.00006666,-0.00005045,0.00027716,0.00027194,-0.0
 0031111,-0.00008258,-0.00019191,0.00026476,0.00003551,-0.00002178,-0.0
 0002031,0.00031287,0.00052514,-0.00012350,-0.00002646,-0.00000345,-0.0
 0001108,-0.00006670,0.00001525,-0.00004505,-0.00000223,0.00000068,0.00
 000218,-0.00000190,0.00000139,-0.00000020,-0.11596451,-0.06075693,-0.1
 6154588,0.00987240,0.00425752,0.01289827,-0.01537875,-0.00825738,-0.01
 286865,0.13248623,0.06474782,0.17082703,-0.00029749,-0.00040160,0.0004
 7379,0.00017324,0.00002428,0.00000667,0.00010277,0.00013280,-0.0001259
 0,0.00003568,-0.00001789,-0.00004753,0.00003914,0.00000121,-0.00002094
 ,0.00050319,-0.00124529,0.00025983,-0.00436228,-0.00103645,0.00351802,
 -0.01311536,-0.02226634,0.00934491,-0.12809456,-0.04344528,0.03698505,
 0.01275168,0.00545295,-0.00835624,-0.00165454,0.00723394,0.00039378,-0
 .00101994,-0.00185743,0.00122466,0.00034435,0.00115907,0.00041278,-0.0
 0192624,-0.00022554,0.00019329,-0.00018749,0.00038882,0.00012662,0.000
 14742,-0.00023595,-0.00013889,-0.00107409,0.00104363,0.00032287,0.0008
 5044,-0.00089606,0.00075019,-0.00000021,0.00000294,-0.00000089,0.00000
 176,0.00000362,0.00000202,0.00005780,0.00006251,-0.00000662,-0.0002826
 3,-0.00005875,0.00015448,-0.00011482,0.00059633,-0.00098727,0.00139943
 ,0.00049204,0.00014181,-0.00001736,0.00004164,-0.00002161,-0.00001599,
 -0.00000688,0.00000765,0.00000174,-0.00000740,0.00000045,0.00000606,0.
 00000093,0.00000199,0.58320410,-0.00085516,-0.00085610,-0.00006738,0.0
 0071167,-0.00001134,0.00025534,-0.00011649,0.00046711,-0.00013514,-0.0
 0001788,-0.00004300,-0.00006197,0.00020151,0.00004643,0.00003301,0.000
 05281,0.00106932,0.00028685,0.00426464,0.00130766,-0.00036292,-0.01453
 049,0.00785986,0.00114403,-0.03747357,-0.17822723,0.04582974,-0.014463
 54,-0.02595426,0.01232776,0.00323241,-0.00090864,-0.00089106,0.0032235
 3,-0.00402469,-0.00081926,0.00306244,0.00250266,0.00012679,-0.00173386
 ,-0.00141129,-0.00065462,-0.00105429,0.00100117,0.00045539,0.00113825,
 -0.00105198,-0.00065513,0.00046667,0.00311594,-0.00217640,-0.00078426,
 -0.00164636,0.00181190,0.00001652,0.00002167,0.00001229,0.00001674,0.0
 0002409,0.00001199,0.00010950,0.00013831,0.00001810,0.00032820,0.00016
 676,-0.00022453,-0.00040165,0.00113979,-0.00013594,-0.00046184,0.00013
 373,0.00048422,-0.00003334,0.00024358,-0.00012746,-0.00003577,-0.00001
 575,-0.00000124,0.00000746,-0.00007684,0.00000425,0.00004777,0.0000097
 4,0.00001686,-0.05820499,0.53163349,0.00035869,0.00053487,0.00027315,-
 0.00043239,0.00004918,-0.00015039,0.00032990,-0.00005131,-0.00007425,0
 .00004317,-0.00000215,-0.00002549,-0.00004923,0.00001390,-0.00001171,0
 .00047872,0.00062348,0.00129311,0.00297234,0.00011664,0.00312249,0.009
 95682,0.00606656,-0.01203999,0.03433943,0.04846236,-0.08474474,-0.0012
 3752,0.00700161,-0.00622971,-0.00058657,-0.00160239,0.00320479,-0.0002
 5805,0.00196386,-0.00193204,0.00011889,-0.00207712,-0.00005780,0.00086
 240,0.00086547,0.00036209,0.00050597,-0.00013561,-0.00018582,-0.000419
 70,0.00032569,0.00025206,0.00007309,-0.00152504,0.00084794,0.00015500,
 0.00086927,-0.00093137,0.00000031,-0.00001391,-0.00000353,-0.00000657,
 -0.00001046,-0.00000733,-0.00027958,-0.00024837,0.00008764,0.00004586,
 0.00002079,-0.00005320,0.00003535,-0.00115260,-0.00065970,0.00042018,0
 .00040469,0.00152640,0.00001405,-0.00011466,0.00007787,0.00001836,0.00
 000970,-0.00000551,-0.00000970,0.00004126,-0.00000526,-0.00001981,-0.0
 0000050,-0.00000705,0.01182867,0.03350837,0.55908987,0.00022612,0.0001
 1563,0.00007244,-0.00014647,-0.00000260,-0.00005148,-0.00001288,-0.000
 12060,0.00001002,0.00001686,-0.00000654,0.00001701,-0.00005167,-0.0000
 0853,-0.00001242,0.00018638,-0.00028138,-0.00007144,-0.00089899,-0.000
 20015,0.00034477,0.00198677,-0.00217995,0.00128817,-0.01571277,0.00337
 707,0.01122671,0.00047166,0.00193818,-0.00101446,-0.00034731,-0.000364
 21,-0.00002561,-0.00085980,0.00040847,0.00067202,-0.00095384,-0.000614
 15,-0.00034423,0.00075706,0.00022481,0.00006487,0.00028293,-0.00023794
 ,-0.00022390,-0.00031227,0.00025791,0.00020037,-0.00001193,-0.00026292
 ,0.00022956,0.00002421,0.00019450,-0.00025618,-0.00000950,-0.00000517,
 -0.00000344,-0.00000462,-0.00000596,-0.00000218,-0.00002988,-0.0000060
 5,0.00000966,-0.00009868,-0.00004315,0.00004840,0.00053983,-0.00015815
 ,0.00013807,0.00002077,-0.00001215,0.00000678,0.00000557,-0.00005130,0
 .00002349,0.00000649,0.00000372,0.00000320,-0.00000052,0.00001664,-0.0
 0000173,-0.00001310,-0.00000374,-0.00000414,-0.16690131,0.06074599,0.1
 1709637,0.18042249,-0.00003171,-0.00004413,-0.00006777,0.00001942,0.00
 001073,0.00000921,-0.00008560,0.00008622,0.00000675,0.00003782,0.00007
 465,0.00001149,-0.00001963,0.00000945,-0.00001448,0.00019856,-0.000428
 13,-0.00021244,-0.00163402,-0.00116215,0.00072272,0.00198185,-0.003135
 22,0.00189041,-0.02663957,0.00592267,0.02259029,-0.00103583,0.00095875
 ,0.00080238,-0.00073383,0.00055027,0.00034105,0.00075761,0.00032099,-0
 .00059145,-0.00020747,-0.00036918,-0.00017743,0.00048188,0.00021545,0.
 00009638,-0.00014139,0.00008780,0.00010089,0.00012225,-0.00006925,-0.0
 0005666,0.00003014,-0.00021110,-0.00006204,-0.00002078,0.00009678,-0.0
 0001496,0.00000469,0.00000381,0.00000290,0.00000051,0.00000545,-0.0000
 0470,-0.00001631,-0.00001950,-0.00001549,-0.00011925,-0.00004010,0.000
 07996,0.00000901,-0.00042482,0.00008905,0.00001746,-0.00004012,-0.0001
 5573,-0.00000133,0.00001085,-0.00000148,-0.00000274,-0.00000061,-0.000
 00370,-0.00000136,-0.00000389,-0.00000086,0.00000373,0.00000351,0.0000
 0022,0.07037660,-0.08579835,-0.06798168,-0.06333504,0.09242404,-0.0000
 9003,-0.00005895,0.00001689,0.00005728,0.00000106,0.00001886,0.0000304
 1,0.00000655,-0.00000256,-0.00001884,-0.00002314,-0.00001319,0.0000285
 5,-0.00000260,0.00001012,-0.00023669,0.00019063,0.00014314,0.00061453,
 0.00070324,-0.00000310,-0.00263929,0.00138663,-0.00053402,0.01211583,-
 0.00116696,-0.00916108,0.00066909,-0.00140811,0.00085692,0.00055294,0.
 00033632,-0.00045326,0.00004669,-0.00024567,0.00041386,-0.00048275,-0.
 00005309,-0.00015491,0.00040914,-0.00001400,-0.00002757,-0.00010897,0.
 00011028,0.00006045,0.00009383,-0.00010723,-0.00006525,-0.00023689,0.0
 0028305,-0.00034685,0.00007591,-0.00021994,0.00029020,0.00000187,0.000
 00133,0.00000002,0.00000223,0.00000065,0.00000216,0.00002624,-0.000003
 55,-0.00001147,0.00006449,0.00001462,-0.00004541,-0.00030067,0.0004721
 2,-0.00008806,-0.00003131,-0.00001972,-0.00001217,-0.00000133,0.000017
 39,-0.00000808,-0.00000156,-0.00000120,0.,0.00000069,-0.00000517,0.000
 00085,0.00000401,0.00000031,0.00000199,0.11715918,-0.06046644,-0.16558
 875,-0.13353453,0.06446547,0.17512896,0.00004546,0.00002506,0.00001861
 ,-0.00005906,0.00000777,-0.00001575,-0.00001325,0.00003983,-0.00002446
 ,0.00003395,0.00003262,0.00000920,-0.00002163,0.00001568,-0.00001493,0
 .00031769,-0.00003300,0.00011879,0.00037733,-0.00055380,0.00093344,0.0
 0216419,-0.00176600,-0.00183356,-0.01064010,-0.01466448,-0.00502214,-0
 .00098990,0.00223452,-0.00109044,-0.00110528,-0.00108242,0.00067850,0.
 00059680,0.00073610,0.00016601,-0.00209152,-0.00084463,-0.00063693,0.0
 0145706,0.00053176,0.00034008,-0.00005670,0.00000585,-0.00003529,-0.00
 000359,0.00002494,0.00004034,0.00017048,-0.00017046,-0.00030770,-0.000
 16315,0.00010142,0.00013442,0.00000082,-0.00000099,-0.00000032,-0.0000
 0086,0.00000115,-0.00000380,-0.00006301,-0.00004056,0.00001939,-0.0000
 5119,-0.00000722,0.00002412,0.00005736,-0.00001442,-0.00000642,-0.0000
 0639,0.00004834,0.00012633,0.00000309,-0.00001220,0.00001222,0.0000020
 5,0.00000251,-0.00000269,-0.00000128,0.00000409,-0.00000069,-0.0000016
 6,0.00000126,-0.00000129,-0.10266738,-0.05969687,-0.08611475,0.0118214
 7,0.01139621,0.01526555,0.10943098,0.00030757,0.00020893,0.00003741,-0
 .00024134,0.00001689,-0.00007245,0.00000263,-0.00011855,-0.00000580,0.
 00002417,0.00000775,0.00001739,-0.00006001,-0.00000152,-0.00001202,0.0
 0026876,0.00002128,0.00017402,0.00013116,-0.00100505,0.00093495,0.0048
 5462,-0.00144941,-0.00308394,-0.01994229,-0.02359231,-0.01006508,-0.00
 220325,0.00240169,-0.00150760,-0.00097215,-0.00088460,0.00137734,-0.00
 096793,0.00124380,-0.00018478,-0.00042140,-0.00055601,-0.00004272,0.00
 047712,0.00030497,0.00018859,0.00031918,-0.00035613,-0.00012273,-0.000
 34041,0.00032186,0.00019584,0.00004225,-0.00082906,0.00054988,0.000050
 07,0.00055519,-0.00059292,-0.00000680,-0.00000904,-0.00000364,-0.00000
 552,-0.00000623,-0.00000319,-0.00011675,-0.00010077,0.00001517,-0.0000
 4699,-0.00001635,0.00003351,0.00002051,-0.00015082,-0.00022966,-0.0000
 0400,0.00004745,0.00032305,0.00000538,-0.00007698,0.00004574,0.0000130
 1,0.00000668,-0.00000201,-0.00000270,0.00002445,-0.00000288,-0.0000153
 0,-0.00000338,-0.00000487,-0.05926901,-0.11492688,-0.09741905,-0.00464
 244,-0.00454217,-0.00813367,0.07475378,0.13210523,-0.00000084,0.000060
 68,-0.00012186,0.00000779,0.00000050,0.00002255,0.00000994,-0.00003200
 ,0.00004408,-0.00001966,-0.00000868,-0.00000426,0.00000533,-0.00000911
 ,0.00001203,-0.00023651,-0.00001880,-0.00019018,0.00008846,0.00047890,
 -0.00056280,-0.00051126,0.00056637,0.00135566,0.01112578,0.01260067,0.
 01529480,0.00053266,-0.00058469,0.00065907,0.00029968,0.00013157,-0.00
 051748,0.00001211,-0.00013605,-0.00003288,0.00038681,-0.00008603,-0.00
 011565,0.00025010,0.00009840,-0.00000648,-0.00001487,-0.00004547,0.000
 09043,-0.00000916,0.00000477,-0.00002212,-0.00004008,0.00008532,-0.000
 29378,-0.00004439,-0.00007802,0.00020942,0.00000128,0.00000110,0.00000
 002,0.00000049,-0.00000045,0.00000310,0.00005690,0.00001561,-0.0000279
 3,0.00001772,0.00000422,-0.00000473,-0.00009151,0.00002498,0.00001266,
 -0.00004407,-0.00003900,-0.00019916,-0.00000009,-0.00000167,-0.0000017
 3,0.00000513,0.00000086,-0.00000011,0.00000020,-0.00000125,-0.00000004
 ,0.00000089,-0.00000088,0.00000071,-0.09038104,-0.10126866,-0.19119303
 ,-0.00970548,-0.00867912,-0.01320091,0.09320293,0.10448345,0.19844030,
 -0.00017874,-0.00036135,-0.00024234,0.00019720,-0.00000409,0.00009406,
 -0.00022123,0.00018867,-0.00002447,0.00004012,0.00006203,0.00002232,0.
 00000315,0.00002201,-0.00000785,0.00035326,0.00008943,-0.00007179,0.00
 022507,-0.00058675,0.00029981,-0.00003904,-0.00029671,0.00110301,0.014
 41492,-0.01295060,0.00961607,-0.00176764,-0.00102548,0.00134928,-0.000
 26274,-0.00107039,-0.00000266,-0.00023683,-0.00047191,-0.00109138,0.00
 012760,0.00131647,0.00111371,-0.00090512,-0.00076546,-0.00087857,-0.00
 031262,0.00016587,0.00039666,0.00033264,-0.00024088,-0.00025427,-0.001
 64538,0.00052452,0.00155630,-0.00036474,0.00059466,-0.00061556,0.00000
 147,0.00000742,0.00000642,0.00000309,0.00001083,-0.00000149,-0.0000422
 1,-0.00001414,-0.00000115,-0.00000034,-0.00000079,-0.00000333,0.000088
 12,-0.00003752,0.00008613,-0.00026231,-0.00013850,-0.00008194,-0.00001
 759,0.00006201,-0.00003196,-0.00000985,-0.00000227,-0.00000807,0.00000
 202,-0.00002164,-0.00000204,0.00001386,0.00000501,0.00000455,-0.177887
 09,0.11223791,-0.09023969,-0.01040308,0.00858811,-0.00953559,-0.008542
 79,0.00798807,-0.00490525,0.18729683,0.00006232,0.00008577,0.00004816,
 -0.00006326,0.00000166,-0.00003814,-0.00004299,-0.00001473,-0.00000799
 ,0.00001511,0.00002745,0.00001195,-0.00002053,0.00000492,-0.00000592,0
 .00004138,0.00006975,-0.00011750,0.00007853,0.00018090,-0.00026093,0.0
 0275082,-0.00007325,-0.00095143,0.01601757,-0.02548796,0.01449276,-0.0
 0314847,0.00064014,0.00342085,0.00032925,-0.00185225,0.00024730,0.0004
 1974,0.00061231,-0.00035993,0.00007954,-0.00062583,-0.00036587,0.00017
 243,0.00017596,0.00015714,0.00003106,-0.00013509,0.00002125,-0.0000538
 7,0.00010476,0.00002853,0.00110968,-0.00083781,-0.00025171,0.00022370,
 0.00012586,-0.00001084,0.00000171,-0.00000294,-0.00000068,-0.00000157,
 0.00000022,-0.00000320,-0.00003302,-0.00003362,0.00000190,0.00000196,0
 .00000752,0.00000906,0.00000212,0.00014695,-0.00004845,-0.00044518,-0.
 00015563,-0.00010760,0.00000687,-0.00001554,0.00000970,0.00000045,0.00
 000130,0.00000210,-0.00000223,0.00000648,0.00000001,-0.00000345,-0.000
 00039,-0.00000117,0.10216155,-0.13592859,0.07145715,0.00525920,-0.0044
 9269,0.00393977,-0.01107586,0.01135909,-0.00756753,-0.11387454,0.15610
 529,-0.00006142,-0.00006228,0.00010763,0.00001499,-0.00001843,0.000002
 35,0.00001779,-0.00003244,-0.00001755,0.00000772,-0.00003535,-0.000007
 68,-0.00000265,-0.00000053,-0.00000781,-0.00007706,-0.00005595,0.00003
 416,-0.00013785,0.00031835,-0.00011267,-0.00131519,0.00080316,0.000824
 92,-0.00658059,0.01237378,-0.00659852,0.00146663,-0.00146026,-0.001237
 34,0.00027698,0.00072739,-0.00015054,-0.00062780,-0.00056692,0.0004499
 2,0.00073450,-0.00012929,-0.00068308,-0.00022813,-0.00010972,0.0001265
 0,0.00012876,-0.00003543,-0.00012259,-0.00014841,0.00005262,0.00008187
 ,-0.00031560,-0.00000984,-0.00007890,-0.00017378,0.00020829,-0.0004528
 9,-0.00000555,-0.00000204,-0.00000030,-0.00000096,-0.00000411,0.000002
 48,0.00002659,0.00003260,0.00001113,-0.00000033,-0.00001223,-0.0000047
 9,-0.00013767,0.00005772,0.00005193,0.00019344,0.00005266,0.00009295,-
 0.00000767,-0.00000608,-0.00000288,0.00000453,0.00000221,0.00000607,0.
 00000259,0.00000001,-0.00000003,-0.00000372,-0.00000389,-0.00000049,-0
 .08322178,0.07172125,-0.10623073,0.01379930,-0.01316920,0.01277222,-0.
 01597878,0.01311268,-0.00964972,0.09235112,-0.08374873,0.11079437\\0.0
 0000273,0.00001371,-0.00001512,-0.00000196,-0.00000478,-0.00004095,0.0
 0001779,0.00001108,0.00002412,-0.00001901,-0.00002183,-0.00003925,-0.0
 0000956,0.00001839,0.00000617,-0.00001323,-0.00001637,-0.00002766,-0.0
 0003978,-0.00001034,0.00000637,-0.00001628,0.00001024,0.00003840,0.000
 01966,0.00000019,-0.00002568,-0.00001787,0.00000237,0.00000164,0.00001
 837,-0.00002547,0.00000088,0.00003622,0.00002577,-0.00002258,0.0000667
 3,0.00002935,0.00005035,-0.00006515,-0.00005373,-0.00002368,-0.0000508
 2,0.00003510,0.00006718,0.00003827,-0.00003170,-0.00003941,-0.00002370
 ,-0.00004492,0.00006628,0.00003109,0.00003620,-0.00004990,-0.00000703,
 0.00000270,-0.00002028,-0.00000340,0.00000832,-0.00001406,-0.00000491,
 0.00000586,0.00001066,-0.00000936,-0.00000467,-0.00000906,-0.00000128,
 -0.00001099,0.00001321,-0.00000915,-0.00000554,0.00000269,0.00000139,0
 .00001762,0.00002209,0.00000806,0.00000845,-0.00001235,0.00000680,0.00
 001329,-0.00000972,0.00000598,0.00001694,-0.00001137,0.00001113,-0.000
 00569,0.00001427,0.00000916,-0.00000215,0.00000755,0.00000666,-0.00001
 342,0.00001563,0.00001244,-0.00000395,0.00001358\\\@


 SOME THINGS ARE EASY, THEY ARE ONLY HARD TO DO.
            -- A. EINSTEIN TO J. O. HIRSCHFELDER
 THE ONLY TROUBLE WITH A SURE THING IS THE UNCERTAINTY.
     -- FROM A TEABAG (BELONGING TO W.H.?)
 Job cpu time:       0 days  4 hours 11 minutes 39.4 seconds.
 File lengths (MBytes):  RWF=    808 Int=      0 D2E=      0 Chk=     26 Scr=      1
 Normal termination of Gaussian 09 at Wed Feb  1 03:50:32 2017.
